REMARK  Name = 54675777
REMARK  8 active torsions:
REMARK  status: ('A' for Active; 'I' for Inactive)
REMARK    1  A    between atoms: O_2  and  C_15
REMARK    2  A    between atoms: O_3  and  C_17
REMARK    3  A    between atoms: O_8  and  C_30
REMARK    4  A    between atoms: N_10  and  C_16
REMARK    5  A    between atoms: N_10  and  C_28
REMARK    6  A    between atoms: N_10  and  C_29
REMARK    7  A    between atoms: C_17  and  C_26
REMARK    8  A    between atoms: C_24  and  C_31
REMARK                            x       y       z     vdW  Elec       q    Type
REMARK                         _______ _______ _______ _____ _____    ______ ____
ROOT
ATOM      1 CL   UNL     1      -4.476  -1.966  -2.338  0.00  0.00    -0.083 Cl
ATOM      2  O   UNL     1       0.480   0.027   3.351  0.00  0.00    -0.289 OA
ATOM      3  O   UNL     1       1.789   2.125   1.536  0.00  0.00    -0.507 OA
ATOM      4  O   UNL     1      -1.523   1.786   2.111  0.00  0.00    -0.506 OA
ATOM      5  O   UNL     1       3.078   0.196  -2.638  0.00  0.00    -0.290 OA
ATOM      6  C   UNL     1       1.643  -1.433   0.243  0.00  0.00    +0.026 C 
ATOM      7  C   UNL     1      -0.875  -1.617   0.588  0.00  0.00    +0.024 C 
ATOM      8  C   UNL     1       0.252  -1.527  -0.456  0.00  0.00    -0.035 C 
ATOM      9  C   UNL     1       1.744  -0.282   1.280  0.00  0.00    +0.190 C 
ATOM     10  C   UNL     1       2.744  -1.324  -0.825  0.00  0.00    +0.080 C 
ATOM     11  C   UNL     1      -2.305  -1.888   0.036  0.00  0.00    +0.097 C 
ATOM     12  C   UNL     1      -0.800  -0.359   1.397  0.00  0.00    +0.047 C 
ATOM     13  C   UNL     1       0.474  -0.198   2.144  0.00  0.00    +0.202 C 
ATOM     14  C   UNL     1       2.003   1.077   0.654  0.00  0.00    +0.149 C 
ATOM     15  C   UNL     1      -3.056  -0.610  -0.327  0.00  0.00    +0.017 A 
ATOM     16  C   UNL     1       2.749   0.052  -1.460  0.00  0.00    +0.189 C 
ATOM     17  C   UNL     1      -1.681   0.650   1.344  0.00  0.00    +0.135 C 
ATOM     18  C   UNL     1       2.412   1.249  -0.621  0.00  0.00    +0.121 C 
ATOM     19  C   UNL     1      -2.776   0.602   0.349  0.00  0.00    +0.065 A 
ATOM     20  C   UNL     1      -3.146  -2.640   1.088  0.00  0.00    -0.031 C 
ATOM     21  C   UNL     1      -4.084  -0.643  -1.289  0.00  0.00    +0.048 A 
ATOM     22  C   UNL     1      -3.513   1.749   0.006  0.00  0.00    +0.128 A 
ATOM     23  C   UNL     1      -4.809   0.504  -1.603  0.00  0.00    -0.040 A 
ATOM     24  C   UNL     1      -4.521   1.700  -0.959  0.00  0.00    -0.018 A 
ENDROOT
BRANCH  18  27
ATOM     25  O   UNL     1       3.635   2.997  -1.626  0.00  0.00    -0.270 OA
ATOM     26  N   UNL     1       1.386   3.312  -1.206  0.00  0.00    -0.325 N 
ATOM     27  C   UNL     1       2.557   2.596  -1.201  0.00  0.00    +0.248 C 
ATOM     28  H   UNL     1       1.369   4.226  -1.571  0.00  0.00    +0.000 HD
ATOM     29  H   UNL     1       0.563   2.912  -0.843  0.00  0.00    +0.000 HD
ENDBRANCH  18  27
BRANCH  10  30
ATOM     30  N   UNL     1       4.086  -1.538  -0.290  0.00  0.00    -0.298 N 
ATOM     31  C   UNL     1       4.161  -2.825   0.398  0.00  0.00    -0.012 C 
ATOM     32  C   UNL     1       5.078  -1.470  -1.361  0.00  0.00    -0.012 C 
ATOM     33  H   UNL     1       4.289  -0.799   0.384  0.00  0.00    +0.000 HD
ENDBRANCH  10  30
BRANCH   9  34
ATOM     34  O   UNL     1       2.820  -0.533   2.185  0.00  0.00    -0.373 OA
ATOM     35  H   UNL     1       2.691  -1.396   2.608  0.00  0.00    +0.000 HD
ENDBRANCH   9  34
BRANCH  11  36
ATOM     36  O   UNL     1      -2.207  -2.736  -1.112  0.00  0.00    -0.384 OA
ATOM     37  H   UNL     1      -1.682  -2.293  -1.797  0.00  0.00    +0.000 HD
ENDBRANCH  11  36
BRANCH  22  38
ATOM     38  O   UNL     1      -3.318   2.965   0.601  0.00  0.00    -0.506 OA
ATOM     39  H   UNL     1      -2.656   3.064   1.258  0.00  0.00    +0.000 HD
ENDBRANCH  22  38
TORSDOF 5
