MODEL 1
REMARK minimizedAffinity -9.21656799
REMARK minimizedRMSD -1
REMARK  Name = 54675777
REMARK  8 active torsions:
REMARK  status: ('A' for Active; 'I' for Inactive)
REMARK    1  A    between atoms: O_2  and  C_15
REMARK    2  A    between atoms: O_3  and  C_17
REMARK    3  A    between atoms: O_8  and  C_30
REMARK    4  A    between atoms: N_10  and  C_16
REMARK    5  A    between atoms: N_10  and  C_28
REMARK    6  A    between atoms: N_10  and  C_29
REMARK    7  A    between atoms: C_17  and  C_26
REMARK    8  A    between atoms: C_24  and  C_31
REMARK                            x       y       z     vdW  Elec       q    Type
REMARK                         _______ _______ _______ _____ _____    ______ ____
ROOT
ATOM      1 CL   UNL     1       0.163   9.640  26.233  0.00  0.00    -0.083 Cl
ATOM      2  O   UNL     1      -1.586   8.276  18.751  0.00  0.00    -0.289 OA
ATOM      3  O   UNL     1      -1.916   5.282  19.328  0.00  0.00    -0.507 OA
ATOM      4  O   UNL     1      -3.356   7.806  21.051  0.00  0.00    -0.506 OA
ATOM      5  O   UNL     1       1.922   3.550  21.581  0.00  0.00    -0.290 OA
ATOM      6  C   UNL     1       1.381   6.877  20.294  0.00  0.00    +0.026 C 
ATOM      7  C   UNL     1       0.267   8.705  21.676  0.00  0.00    +0.024 C 
ATOM      8  C   UNL     1       1.129   7.431  21.730  0.00  0.00    -0.035 C 
ATOM      9  C   UNL     1       0.081   6.641  19.479  0.00  0.00    +0.190 C 
ATOM     10  C   UNL     1       2.227   5.596  20.384  0.00  0.00    +0.080 C 
ATOM     11  C   UNL     1       0.077   9.465  23.021  0.00  0.00    +0.097 C 
ATOM     12  C   UNL     1      -1.035   8.305  21.054  0.00  0.00    +0.047 C 
ATOM     13  C   UNL     1      -0.908   7.805  19.660  0.00  0.00    +0.202 C 
ATOM     14  C   UNL     1      -0.623   5.340  19.823  0.00  0.00    +0.149 C 
ATOM     15  C   UNL     1      -1.120   8.965  23.825  0.00  0.00    +0.017 A 
ATOM     16  C   UNL     1       1.401   4.435  20.902  0.00  0.00    +0.189 C 
ATOM     17  C   UNL     1      -2.205   8.205  21.700  0.00  0.00    +0.135 C 
ATOM     18  C   UNL     1      -0.048   4.340  20.524  0.00  0.00    +0.121 C 
ATOM     19  C   UNL     1      -2.239   8.400  23.167  0.00  0.00    +0.065 A 
ATOM     20  C   UNL     1      -0.136  10.970  22.754  0.00  0.00    -0.031 C 
ATOM     21  C   UNL     1      -1.150   9.128  25.224  0.00  0.00    +0.048 A 
ATOM     22  C   UNL     1      -3.334   7.981  23.943  0.00  0.00    +0.128 A 
ATOM     23  C   UNL     1      -2.251   8.716  25.970  0.00  0.00    -0.040 A 
ATOM     24  C   UNL     1      -3.341   8.140  25.330  0.00  0.00    -0.018 A 
ENDROOT
BRANCH  18  27
ATOM     25  O   UNL     1      -0.435   2.015  20.598  0.00  0.00    -0.270 OA
ATOM     26  N   UNL     1      -1.947   3.426  21.624  0.00  0.00    -0.325 N 
ATOM     27  C   UNL     1      -0.812   3.139  20.908  0.00  0.00    +0.248 C 
ATOM     28  H   UNL     1      -2.533   2.698  21.931  0.00  0.00    +0.000 HD
ATOM     29  H   UNL     1      -2.176   4.361  21.829  0.00  0.00    +0.000 HD
ENDBRANCH  18  27
BRANCH  10  30
ATOM     30  N   UNL     1       2.770   5.175  19.095  0.00  0.00    -0.298 N 
ATOM     31  C   UNL     1       3.395   6.305  18.412  0.00  0.00    -0.012 C 
ATOM     32  C   UNL     1       3.731   4.089  19.277  0.00  0.00    -0.012 C 
ATOM     33  H   UNL     1       2.003   4.831  18.516  0.00  0.00    +0.000 HD
ENDBRANCH  10  30
BRANCH   9  34
ATOM     34  O   UNL     1       0.382   6.593  18.084  0.00  0.00    -0.373 OA
ATOM     35  H   UNL     1       0.834   7.410  17.823  0.00  0.00    +0.000 HD
ENDBRANCH   9  34
BRANCH  11  36
ATOM     36  O   UNL     1       1.271   9.339  23.799  0.00  0.00    -0.384 OA
ATOM     37  H   UNL     1       1.437   8.402  23.986  0.00  0.00    +0.000 HD
ENDBRANCH  11  36
BRANCH  22  38
ATOM     38  O   UNL     1      -4.460   7.425  23.402  0.00  0.00    -0.506 OA
ATOM     39  H   UNL     1      -4.518   7.292  22.476  0.00  0.00    +0.000 HD
ENDBRANCH  22  38
TORSDOF 5
ENDMDL
MODEL 2
REMARK minimizedAffinity -7.35883522
REMARK minimizedRMSD -1
REMARK  Name = 54675777
REMARK  8 active torsions:
REMARK  status: ('A' for Active; 'I' for Inactive)
REMARK    1  A    between atoms: O_2  and  C_15
REMARK    2  A    between atoms: O_3  and  C_17
REMARK    3  A    between atoms: O_8  and  C_30
REMARK    4  A    between atoms: N_10  and  C_16
REMARK    5  A    between atoms: N_10  and  C_28
REMARK    6  A    between atoms: N_10  and  C_29
REMARK    7  A    between atoms: C_17  and  C_26
REMARK    8  A    between atoms: C_24  and  C_31
REMARK                            x       y       z     vdW  Elec       q    Type
REMARK                         _______ _______ _______ _____ _____    ______ ____
ROOT
ATOM      1 CL   UNL     1      -0.476   7.195  31.615  0.00  0.00    -0.083 Cl
ATOM      2  O   UNL     1      -5.555  11.200  27.248  0.00  0.00    -0.289 OA
ATOM      3  O   UNL     1      -5.280   9.157  24.976  0.00  0.00    -0.507 OA
ATOM      4  O   UNL     1      -5.907   8.447  28.220  0.00  0.00    -0.506 OA
ATOM      5  O   UNL     1      -0.689   8.465  23.858  0.00  0.00    -0.290 OA
ATOM      6  C   UNL     1      -2.099  10.780  26.239  0.00  0.00    +0.026 C 
ATOM      7  C   UNL     1      -2.549  10.134  28.662  0.00  0.00    +0.024 C 
ATOM      8  C   UNL     1      -1.659   9.879  27.433  0.00  0.00    -0.035 C 
ATOM      9  C   UNL     1      -3.604  10.651  25.880  0.00  0.00    +0.190 C 
ATOM     10  C   UNL     1      -1.205  10.487  25.022  0.00  0.00    +0.080 C 
ATOM     11  C   UNL     1      -2.120   9.428  29.982  0.00  0.00    +0.097 C 
ATOM     12  C   UNL     1      -3.945   9.782  28.250  0.00  0.00    +0.047 C 
ATOM     13  C   UNL     1      -4.477  10.621  27.146  0.00  0.00    +0.202 C 
ATOM     14  C   UNL     1      -3.923   9.432  25.034  0.00  0.00    +0.149 C 
ATOM     15  C   UNL     1      -2.712   8.030  30.130  0.00  0.00    +0.017 A 
ATOM     16  C   UNL     1      -1.557   9.151  24.400  0.00  0.00    +0.189 C 
ATOM     17  C   UNL     1      -4.629   8.707  28.668  0.00  0.00    +0.135 C 
ATOM     18  C   UNL     1      -2.987   8.699  24.393  0.00  0.00    +0.121 C 
ATOM     19  C   UNL     1      -3.952   7.710  29.527  0.00  0.00    +0.065 A 
ATOM     20  C   UNL     1      -2.574  10.259  31.199  0.00  0.00    -0.031 C 
ATOM     21  C   UNL     1      -2.063   7.068  30.928  0.00  0.00    +0.048 A 
ATOM     22  C   UNL     1      -4.478   6.419  29.715  0.00  0.00    +0.128 A 
ATOM     23  C   UNL     1      -2.609   5.800  31.109  0.00  0.00    -0.040 A 
ATOM     24  C   UNL     1      -3.814   5.474  30.500  0.00  0.00    -0.018 A 
ENDROOT
BRANCH  18  27
ATOM     25  O   UNL     1      -3.509   6.404  24.245  0.00  0.00    -0.270 OA
ATOM     26  N   UNL     1      -3.477   7.664  22.309  0.00  0.00    -0.325 N 
ATOM     27  C   UNL     1      -3.348   7.471  23.662  0.00  0.00    +0.248 C 
ATOM     28  H   UNL     1      -3.716   6.909  21.725  0.00  0.00    +0.000 HD
ATOM     29  H   UNL     1      -3.329   8.557  21.923  0.00  0.00    +0.000 HD
ENDBRANCH  18  27
BRANCH  10  30
ATOM     30  N   UNL     1      -1.332  11.484  23.963  0.00  0.00    -0.298 N 
ATOM     31  C   UNL     1      -1.037  12.818  24.480  0.00  0.00    -0.012 C 
ATOM     32  C   UNL     1      -0.446  11.158  22.847  0.00  0.00    -0.012 C 
ATOM     33  H   UNL     1      -2.295  11.475  23.622  0.00  0.00    +0.000 HD
ENDBRANCH  10  30
BRANCH   9  34
ATOM     34  O   UNL     1      -4.028  11.794  25.136  0.00  0.00    -0.373 OA
ATOM     35  H   UNL     1      -3.841  12.598  25.645  0.00  0.00    +0.000 HD
ENDBRANCH   9  34
BRANCH  11  36
ATOM     36  O   UNL     1      -0.691   9.358  30.027  0.00  0.00    -0.384 OA
ATOM     37  H   UNL     1      -0.369   8.841  29.273  0.00  0.00    +0.000 HD
ENDBRANCH  11  36
BRANCH  22  38
ATOM     38  O   UNL     1      -5.668   6.014  29.176  0.00  0.00    -0.506 OA
ATOM     39  H   UNL     1      -6.163   6.602  28.639  0.00  0.00    +0.000 HD
ENDBRANCH  22  38
TORSDOF 5
ENDMDL
MODEL 3
REMARK minimizedAffinity -7.07094288
REMARK minimizedRMSD -1
REMARK  Name = 54675777
REMARK  8 active torsions:
REMARK  status: ('A' for Active; 'I' for Inactive)
REMARK    1  A    between atoms: O_2  and  C_15
REMARK    2  A    between atoms: O_3  and  C_17
REMARK    3  A    between atoms: O_8  and  C_30
REMARK    4  A    between atoms: N_10  and  C_16
REMARK    5  A    between atoms: N_10  and  C_28
REMARK    6  A    between atoms: N_10  and  C_29
REMARK    7  A    between atoms: C_17  and  C_26
REMARK    8  A    between atoms: C_24  and  C_31
REMARK                            x       y       z     vdW  Elec       q    Type
REMARK                         _______ _______ _______ _____ _____    ______ ____
ROOT
ATOM      1 CL   UNL     1       1.178  11.569  29.768  0.00  0.00    -0.083 Cl
ATOM      2  O   UNL     1      -3.666   6.927  25.783  0.00  0.00    -0.289 OA
ATOM      3  O   UNL     1      -5.593   9.266  25.313  0.00  0.00    -0.507 OA
ATOM      4  O   UNL     1      -2.267   9.284  24.718  0.00  0.00    -0.506 OA
ATOM      5  O   UNL     1      -6.677  11.429  29.431  0.00  0.00    -0.290 OA
ATOM      6  C   UNL     1      -4.663   8.483  28.901  0.00  0.00    +0.026 C 
ATOM      7  C   UNL     1      -2.160   8.612  28.441  0.00  0.00    +0.024 C 
ATOM      8  C   UNL     1      -3.350   9.292  29.139  0.00  0.00    -0.035 C 
ATOM      9  C   UNL     1      -4.968   8.216  27.403  0.00  0.00    +0.190 C 
ATOM     10  C   UNL     1      -5.835   9.199  29.593  0.00  0.00    +0.080 C 
ATOM     11  C   UNL     1      -0.754   9.213  28.734  0.00  0.00    +0.097 C 
ATOM     12  C   UNL     1      -2.484   8.593  26.979  0.00  0.00    +0.047 C 
ATOM     13  C   UNL     1      -3.697   7.804  26.640  0.00  0.00    +0.202 C 
ATOM     14  C   UNL     1      -5.606   9.397  26.693  0.00  0.00    +0.149 C 
ATOM     15  C   UNL     1      -0.377  10.340  27.775  0.00  0.00    +0.017 A 
ATOM     16  C   UNL     1      -6.232  10.448  28.833  0.00  0.00    +0.189 C 
ATOM     17  C   UNL     1      -1.890   9.348  26.044  0.00  0.00    +0.135 C 
ATOM     18  C   UNL     1      -6.142  10.457  27.336  0.00  0.00    +0.121 C 
ATOM     19  C   UNL     1      -0.898  10.365  26.459  0.00  0.00    +0.065 A 
ATOM     20  C   UNL     1       0.326   8.119  28.615  0.00  0.00    -0.031 C 
ATOM     21  C   UNL     1       0.550  11.324  28.171  0.00  0.00    +0.048 A 
ATOM     22  C   UNL     1      -0.499  11.403  25.599  0.00  0.00    +0.128 A 
ATOM     23  C   UNL     1       0.939  12.335  27.296  0.00  0.00    -0.040 A 
ATOM     24  C   UNL     1       0.412  12.377  26.012  0.00  0.00    -0.018 A 
ENDROOT
BRANCH  18  27
ATOM     25  O   UNL     1      -7.861  11.876  26.567  0.00  0.00    -0.270 OA
ATOM     26  N   UNL     1      -5.682  12.339  25.958  0.00  0.00    -0.325 N 
ATOM     27  C   UNL     1      -6.663  11.617  26.591  0.00  0.00    +0.248 C 
ATOM     28  H   UNL     1      -5.919  13.135  25.431  0.00  0.00    +0.000 HD
ATOM     29  H   UNL     1      -4.741  12.059  26.030  0.00  0.00    +0.000 HD
ENDBRANCH  18  27
BRANCH  10  30
ATOM     30  N   UNL     1      -7.036   8.373  29.689  0.00  0.00    -0.298 N 
ATOM     31  C   UNL     1      -6.791   7.216  30.547  0.00  0.00    -0.012 C 
ATOM     32  C   UNL     1      -8.156   9.161  30.197  0.00  0.00    -0.012 C 
ATOM     33  H   UNL     1      -7.275   8.038  28.755  0.00  0.00    +0.000 HD
ENDBRANCH  10  30
BRANCH   9  34
ATOM     34  O   UNL     1      -5.874   7.119  27.277  0.00  0.00    -0.373 OA
ATOM     35  H   UNL     1      -5.501   6.340  27.719  0.00  0.00    +0.000 HD
ENDBRANCH   9  34
BRANCH  11  36
ATOM     36  O   UNL     1      -0.725   9.692  30.081  0.00  0.00    -0.384 OA
ATOM     37  H   UNL     1      -1.396  10.385  30.192  0.00  0.00    +0.000 HD
ENDBRANCH  11  36
BRANCH  22  38
ATOM     38  O   UNL     1      -0.945  11.515  24.311  0.00  0.00    -0.506 OA
ATOM     39  H   UNL     1      -1.559  10.891  23.972  0.00  0.00    +0.000 HD
ENDBRANCH  22  38
TORSDOF 5
ENDMDL
MODEL 4
REMARK minimizedAffinity -6.99036598
REMARK minimizedRMSD -1
REMARK  Name = 54675777
REMARK  8 active torsions:
REMARK  status: ('A' for Active; 'I' for Inactive)
REMARK    1  A    between atoms: O_2  and  C_15
REMARK    2  A    between atoms: O_3  and  C_17
REMARK    3  A    between atoms: O_8  and  C_30
REMARK    4  A    between atoms: N_10  and  C_16
REMARK    5  A    between atoms: N_10  and  C_28
REMARK    6  A    between atoms: N_10  and  C_29
REMARK    7  A    between atoms: C_17  and  C_26
REMARK    8  A    between atoms: C_24  and  C_31
REMARK                            x       y       z     vdW  Elec       q    Type
REMARK                         _______ _______ _______ _____ _____    ______ ____
ROOT
ATOM      1 CL   UNL     1      -1.369   6.388  31.612  0.00  0.00    -0.083 Cl
ATOM      2  O   UNL     1      -6.696  10.118  27.297  0.00  0.00    -0.289 OA
ATOM      3  O   UNL     1      -5.096   9.540  24.744  0.00  0.00    -0.507 OA
ATOM      4  O   UNL     1      -5.986   7.272  27.085  0.00  0.00    -0.506 OA
ATOM      5  O   UNL     1      -0.550  10.918  25.238  0.00  0.00    -0.290 OA
ATOM      6  C   UNL     1      -3.284  11.316  27.558  0.00  0.00    +0.026 C 
ATOM      7  C   UNL     1      -3.882   9.530  29.274  0.00  0.00    +0.024 C 
ATOM      8  C   UNL     1      -2.743  10.159  28.452  0.00  0.00    -0.035 C 
ATOM      9  C   UNL     1      -4.471  10.899  26.648  0.00  0.00    +0.190 C 
ATOM     10  C   UNL     1      -2.127  11.908  26.735  0.00  0.00    +0.080 C 
ATOM     11  C   UNL     1      -3.462   8.476  30.340  0.00  0.00    +0.097 C 
ATOM     12  C   UNL     1      -4.865   8.987  28.284  0.00  0.00    +0.047 C 
ATOM     13  C   UNL     1      -5.477  10.022  27.412  0.00  0.00    +0.202 C 
ATOM     14  C   UNL     1      -4.041  10.170  25.387  0.00  0.00    +0.149 C 
ATOM     15  C   UNL     1      -3.393   7.058  29.780  0.00  0.00    +0.017 A 
ATOM     16  C   UNL     1      -1.721  10.969  25.617  0.00  0.00    +0.189 C 
ATOM     17  C   UNL     1      -5.073   7.686  28.033  0.00  0.00    +0.135 C 
ATOM     18  C   UNL     1      -2.771  10.147  24.931  0.00  0.00    +0.121 C 
ATOM     19  C   UNL     1      -4.215   6.676  28.692  0.00  0.00    +0.065 A 
ATOM     20  C   UNL     1      -4.471   8.469  31.506  0.00  0.00    -0.031 C 
ATOM     21  C   UNL     1      -2.562   6.097  30.388  0.00  0.00    +0.048 A 
ATOM     22  C   UNL     1      -4.143   5.351  28.228  0.00  0.00    +0.128 A 
ATOM     23  C   UNL     1      -2.518   4.787  29.918  0.00  0.00    -0.040 A 
ATOM     24  C   UNL     1      -3.305   4.415  28.836  0.00  0.00    -0.018 A 
ENDROOT
BRANCH  18  27
ATOM     25  O   UNL     1      -2.310   8.122  23.812  0.00  0.00    -0.270 OA
ATOM     26  N   UNL     1      -2.171  10.102  22.631  0.00  0.00    -0.325 N 
ATOM     27  C   UNL     1      -2.397   9.344  23.753  0.00  0.00    +0.248 C 
ATOM     28  H   UNL     1      -1.915   9.668  21.786  0.00  0.00    +0.000 HD
ATOM     29  H   UNL     1      -2.263  11.082  22.672  0.00  0.00    +0.000 HD
ENDBRANCH  18  27
BRANCH  10  30
ATOM     30  N   UNL     1      -2.465  13.181  26.104  0.00  0.00    -0.298 N 
ATOM     31  C   UNL     1      -2.804  14.178  27.117  0.00  0.00    -0.012 C 
ATOM     32  C   UNL     1      -1.355  13.648  25.275  0.00  0.00    -0.012 C 
ATOM     33  H   UNL     1      -3.278  13.041  25.504  0.00  0.00    +0.000 HD
ENDBRANCH  10  30
BRANCH   9  34
ATOM     34  O   UNL     1      -5.196  12.057  26.230  0.00  0.00    -0.373 OA
ATOM     35  H   UNL     1      -5.489  12.552  27.010  0.00  0.00    +0.000 HD
ENDBRANCH   9  34
BRANCH  11  36
ATOM     36  O   UNL     1      -2.191   8.845  30.883  0.00  0.00    -0.384 OA
ATOM     37  H   UNL     1      -1.528   8.861  30.174  0.00  0.00    +0.000 HD
ENDBRANCH  11  36
BRANCH  22  38
ATOM     38  O   UNL     1      -4.896   4.886  27.185  0.00  0.00    -0.506 OA
ATOM     39  H   UNL     1      -5.480   5.465  26.734  0.00  0.00    +0.000 HD
ENDBRANCH  22  38
TORSDOF 5
ENDMDL
MODEL 5
REMARK minimizedAffinity -6.59207296
REMARK minimizedRMSD -1
REMARK  Name = 54675777
REMARK  8 active torsions:
REMARK  status: ('A' for Active; 'I' for Inactive)
REMARK    1  A    between atoms: O_2  and  C_15
REMARK    2  A    between atoms: O_3  and  C_17
REMARK    3  A    between atoms: O_8  and  C_30
REMARK    4  A    between atoms: N_10  and  C_16
REMARK    5  A    between atoms: N_10  and  C_28
REMARK    6  A    between atoms: N_10  and  C_29
REMARK    7  A    between atoms: C_17  and  C_26
REMARK    8  A    between atoms: C_24  and  C_31
REMARK                            x       y       z     vdW  Elec       q    Type
REMARK                         _______ _______ _______ _____ _____    ______ ____
ROOT
ATOM      1 CL   UNL     1      -1.502  10.010  21.879  0.00  0.00    -0.083 Cl
ATOM      2  O   UNL     1      -3.027  11.396  29.406  0.00  0.00    -0.289 OA
ATOM      3  O   UNL     1      -6.009  11.752  28.781  0.00  0.00    -0.507 OA
ATOM      4  O   UNL     1      -4.075   9.156  27.816  0.00  0.00    -0.506 OA
ATOM      5  O   UNL     1      -6.643  14.909  25.254  0.00  0.00    -0.290 OA
ATOM      6  C   UNL     1      -3.568  13.921  26.861  0.00  0.00    +0.026 C 
ATOM      7  C   UNL     1      -2.193  11.931  26.060  0.00  0.00    +0.024 C 
ATOM      8  C   UNL     1      -3.164  13.046  25.635  0.00  0.00    -0.035 C 
ATOM      9  C   UNL     1      -4.138  13.104  28.051  0.00  0.00    +0.190 C 
ATOM     10  C   UNL     1      -4.552  15.012  26.407  0.00  0.00    +0.080 C 
ATOM     11  C   UNL     1      -1.571  11.084  24.912  0.00  0.00    +0.097 C 
ATOM     12  C   UNL     1      -2.928  11.092  27.060  0.00  0.00    +0.047 C 
ATOM     13  C   UNL     1      -3.316  11.825  28.292  0.00  0.00    +0.202 C 
ATOM     14  C   UNL     1      -5.598  12.724  27.882  0.00  0.00    +0.149 C 
ATOM     15  C   UNL     1      -2.426   9.878  24.530  0.00  0.00    +0.017 A 
ATOM     16  C   UNL     1      -5.921  14.424  26.126  0.00  0.00    +0.189 C 
ATOM     17  C   UNL     1      -3.386   9.851  26.842  0.00  0.00    +0.135 C 
ATOM     18  C   UNL     1      -6.416  13.283  26.965  0.00  0.00    +0.121 C 
ATOM     19  C   UNL     1      -3.264   9.262  25.490  0.00  0.00    +0.065 A 
ATOM     20  C   UNL     1      -0.184  10.557  25.332  0.00  0.00    -0.031 C 
ATOM     21  C   UNL     1      -2.332   9.326  23.238  0.00  0.00    +0.048 A 
ATOM     22  C   UNL     1      -4.011   8.134  25.106  0.00  0.00    +0.128 A 
ATOM     23  C   UNL     1      -3.072   8.200  22.884  0.00  0.00    -0.040 A 
ATOM     24  C   UNL     1      -3.914   7.607  23.816  0.00  0.00    -0.018 A 
ENDROOT
BRANCH  18  27
ATOM     25  O   UNL     1      -8.648  12.966  27.656  0.00  0.00    -0.270 OA
ATOM     26  N   UNL     1      -8.009  12.195  25.575  0.00  0.00    -0.325 N 
ATOM     27  C   UNL     1      -7.799  12.808  26.785  0.00  0.00    +0.248 C 
ATOM     28  H   UNL     1      -8.899  11.839  25.351  0.00  0.00    +0.000 HD
ATOM     29  H   UNL     1      -7.269  12.110  24.932  0.00  0.00    +0.000 HD
ENDBRANCH  18  27
BRANCH  10  30
ATOM     30  N   UNL     1      -4.749  16.059  27.405  0.00  0.00    -0.298 N 
ATOM     31  C   UNL     1      -3.462  16.600  27.837  0.00  0.00    -0.012 C 
ATOM     32  C   UNL     1      -5.599  17.121  26.869  0.00  0.00    -0.012 C 
ATOM     33  H   UNL     1      -5.217  15.652  28.216  0.00  0.00    +0.000 HD
ENDBRANCH  10  30
BRANCH   9  34
ATOM     34  O   UNL     1      -4.044  13.865  29.256  0.00  0.00    -0.373 OA
ATOM     35  H   UNL     1      -3.122  14.127  29.401  0.00  0.00    +0.000 HD
ENDBRANCH   9  34
BRANCH  11  36
ATOM     36  O   UNL     1      -1.377  11.922  23.769  0.00  0.00    -0.384 OA
ATOM     37  H   UNL     1      -2.233  12.273  23.476  0.00  0.00    +0.000 HD
ENDBRANCH  11  36
BRANCH  22  38
ATOM     38  O   UNL     1      -4.848   7.469  25.959  0.00  0.00    -0.506 OA
ATOM     39  H   UNL     1      -4.956   7.773  26.839  0.00  0.00    +0.000 HD
ENDBRANCH  22  38
TORSDOF 5
ENDMDL
MODEL 6
REMARK minimizedAffinity -6.48017073
REMARK minimizedRMSD -1
REMARK  Name = 54675777
REMARK  8 active torsions:
REMARK  status: ('A' for Active; 'I' for Inactive)
REMARK    1  A    between atoms: O_2  and  C_15
REMARK    2  A    between atoms: O_3  and  C_17
REMARK    3  A    between atoms: O_8  and  C_30
REMARK    4  A    between atoms: N_10  and  C_16
REMARK    5  A    between atoms: N_10  and  C_28
REMARK    6  A    between atoms: N_10  and  C_29
REMARK    7  A    between atoms: C_17  and  C_26
REMARK    8  A    between atoms: C_24  and  C_31
REMARK                            x       y       z     vdW  Elec       q    Type
REMARK                         _______ _______ _______ _____ _____    ______ ____
ROOT
ATOM      1 CL   UNL     1      -7.643   9.468  31.067  0.00  0.00    -0.083 Cl
ATOM      2  O   UNL     1      -1.913   7.976  25.985  0.00  0.00    -0.289 OA
ATOM      3  O   UNL     1       0.141   7.874  28.262  0.00  0.00    -0.507 OA
ATOM      4  O   UNL     1      -2.796   6.206  28.160  0.00  0.00    -0.506 OA
ATOM      5  O   UNL     1      -0.133  11.796  30.973  0.00  0.00    -0.290 OA
ATOM      6  C   UNL     1      -1.956  11.015  27.960  0.00  0.00    +0.026 C 
ATOM      7  C   UNL     1      -4.158   9.733  27.996  0.00  0.00    +0.024 C 
ATOM      8  C   UNL     1      -3.244  10.693  28.778  0.00  0.00    -0.035 C 
ATOM      9  C   UNL     1      -1.179   9.754  27.496  0.00  0.00    +0.190 C 
ATOM     10  C   UNL     1      -1.057  11.959  28.776  0.00  0.00    +0.080 C 
ATOM     11  C   UNL     1      -5.559   9.457  28.615  0.00  0.00    +0.097 C 
ATOM     12  C   UNL     1      -3.367   8.479  27.784  0.00  0.00    +0.047 C 
ATOM     13  C   UNL     1      -2.138   8.671  26.971  0.00  0.00    +0.202 C 
ATOM     14  C   UNL     1      -0.302   9.149  28.578  0.00  0.00    +0.149 C 
ATOM     15  C   UNL     1      -5.558   8.289  29.597  0.00  0.00    +0.017 A 
ATOM     16  C   UNL     1      -0.387  11.218  29.916  0.00  0.00    +0.189 C 
ATOM     17  C   UNL     1      -3.590   7.309  28.399  0.00  0.00    +0.135 C 
ATOM     18  C   UNL     1       0.026   9.789  29.720  0.00  0.00    +0.121 C 
ATOM     19  C   UNL     1      -4.628   7.231  29.451  0.00  0.00    +0.065 A 
ATOM     20  C   UNL     1      -6.576   9.130  27.503  0.00  0.00    -0.031 C 
ATOM     21  C   UNL     1      -6.528   8.220  30.615  0.00  0.00    +0.048 A 
ATOM     22  C   UNL     1      -4.682   6.159  30.358  0.00  0.00    +0.128 A 
ATOM     23  C   UNL     1      -6.569   7.141  31.495  0.00  0.00    -0.040 A 
ATOM     24  C   UNL     1      -5.644   6.113  31.369  0.00  0.00    -0.018 A 
ENDROOT
BRANCH  18  27
ATOM     25  O   UNL     1       1.965   9.431  31.014  0.00  0.00    -0.270 OA
ATOM     26  N   UNL     1       0.098   8.137  31.428  0.00  0.00    -0.325 N 
ATOM     27  C   UNL     1       0.805   9.116  30.775  0.00  0.00    +0.248 C 
ATOM     28  H   UNL     1       0.523   7.623  32.152  0.00  0.00    +0.000 HD
ATOM     29  H   UNL     1      -0.833   7.948  31.172  0.00  0.00    +0.000 HD
ENDBRANCH  18  27
BRANCH  10  30
ATOM     30  N   UNL     1       0.014  12.558  27.984  0.00  0.00    -0.298 N 
ATOM     31  C   UNL     1      -0.542  13.396  26.925  0.00  0.00    -0.012 C 
ATOM     32  C   UNL     1       0.906  13.337  28.841  0.00  0.00    -0.012 C 
ATOM     33  H   UNL     1       0.557  11.809  27.552  0.00  0.00    +0.000 HD
ENDBRANCH  10  30
BRANCH   9  34
ATOM     34  O   UNL     1      -0.321  10.083  26.403  0.00  0.00    -0.373 OA
ATOM     35  H   UNL     1      -0.846  10.474  25.687  0.00  0.00    +0.000 HD
ENDBRANCH   9  34
BRANCH  11  36
ATOM     36  O   UNL     1      -6.018  10.643  29.272  0.00  0.00    -0.384 OA
ATOM     37  H   UNL     1      -5.399  10.879  29.981  0.00  0.00    +0.000 HD
ENDBRANCH  11  36
BRANCH  22  38
ATOM     38  O   UNL     1      -3.829   5.091  30.300  0.00  0.00    -0.506 OA
ATOM     39  H   UNL     1      -3.160   5.061  29.644  0.00  0.00    +0.000 HD
ENDBRANCH  22  38
TORSDOF 5
ENDMDL
MODEL 7
REMARK minimizedAffinity -6.38687181
REMARK minimizedRMSD -1
REMARK  Name = 54675777
REMARK  8 active torsions:
REMARK  status: ('A' for Active; 'I' for Inactive)
REMARK    1  A    between atoms: O_2  and  C_15
REMARK    2  A    between atoms: O_3  and  C_17
REMARK    3  A    between atoms: O_8  and  C_30
REMARK    4  A    between atoms: N_10  and  C_16
REMARK    5  A    between atoms: N_10  and  C_28
REMARK    6  A    between atoms: N_10  and  C_29
REMARK    7  A    between atoms: C_17  and  C_26
REMARK    8  A    between atoms: C_24  and  C_31
REMARK                            x       y       z     vdW  Elec       q    Type
REMARK                         _______ _______ _______ _____ _____    ______ ____
ROOT
ATOM      1 CL   UNL     1       1.174  12.122  27.391  0.00  0.00    -0.083 Cl
ATOM      2  O   UNL     1      -5.918   9.694  25.223  0.00  0.00    -0.289 OA
ATOM      3  O   UNL     1      -7.005  10.207  28.045  0.00  0.00    -0.507 OA
ATOM      4  O   UNL     1      -5.232  12.390  26.173  0.00  0.00    -0.506 OA
ATOM      5  O   UNL     1      -4.285   8.060  31.332  0.00  0.00    -0.290 OA
ATOM      6  C   UNL     1      -3.993   7.930  27.738  0.00  0.00    +0.026 C 
ATOM      7  C   UNL     1      -2.642   9.642  26.421  0.00  0.00    +0.024 C 
ATOM      8  C   UNL     1      -2.775   8.905  27.765  0.00  0.00    -0.035 C 
ATOM      9  C   UNL     1      -5.329   8.611  27.336  0.00  0.00    +0.190 C 
ATOM     10  C   UNL     1      -4.111   7.225  29.100  0.00  0.00    +0.080 C 
ATOM     11  C   UNL     1      -1.370  10.521  26.241  0.00  0.00    +0.097 C 
ATOM     12  C   UNL     1      -3.908  10.421  26.241  0.00  0.00    +0.047 C 
ATOM     13  C   UNL     1      -5.128   9.577  26.155  0.00  0.00    +0.202 C 
ATOM     14  C   UNL     1      -5.995   9.361  28.476  0.00  0.00    +0.149 C 
ATOM     15  C   UNL     1      -1.556  11.950  26.745  0.00  0.00    +0.017 A 
ATOM     16  C   UNL     1      -4.640   8.173  30.157  0.00  0.00    +0.189 C 
ATOM     17  C   UNL     1      -4.018  11.754  26.332  0.00  0.00    +0.135 C 
ATOM     18  C   UNL     1      -5.651   9.211  29.773  0.00  0.00    +0.121 C 
ATOM     19  C   UNL     1      -2.838  12.550  26.738  0.00  0.00    +0.065 A 
ATOM     20  C   UNL     1      -0.985  10.599  24.749  0.00  0.00    -0.031 C 
ATOM     21  C   UNL     1      -0.441  12.706  27.154  0.00  0.00    +0.048 A 
ATOM     22  C   UNL     1      -2.960  13.879  27.181  0.00  0.00    +0.128 A 
ATOM     23  C   UNL     1      -0.585  14.025  27.577  0.00  0.00    -0.040 A 
ATOM     24  C   UNL     1      -1.845  14.610  27.594  0.00  0.00    -0.018 A 
ENDROOT
BRANCH  18  27
ATOM     25  O   UNL     1      -5.938  11.202  31.004  0.00  0.00    -0.270 OA
ATOM     26  N   UNL     1      -7.223   9.363  31.550  0.00  0.00    -0.325 N 
ATOM     27  C   UNL     1      -6.270  10.035  30.826  0.00  0.00    +0.248 C 
ATOM     28  H   UNL     1      -7.700   9.819  32.280  0.00  0.00    +0.000 HD
ATOM     29  H   UNL     1      -7.428   8.423  31.340  0.00  0.00    +0.000 HD
ENDBRANCH  18  27
BRANCH  10  30
ATOM     30  N   UNL     1      -5.019   6.081  29.077  0.00  0.00    -0.298 N 
ATOM     31  C   UNL     1      -4.489   5.026  28.216  0.00  0.00    -0.012 C 
ATOM     32  C   UNL     1      -5.238   5.578  30.431  0.00  0.00    -0.012 C 
ATOM     33  H   UNL     1      -5.917   6.387  28.699  0.00  0.00    +0.000 HD
ENDBRANCH  10  30
BRANCH   9  34
ATOM     34  O   UNL     1      -6.262   7.628  26.886  0.00  0.00    -0.373 OA
ATOM     35  H   UNL     1      -5.873   7.125  26.154  0.00  0.00    +0.000 HD
ENDBRANCH   9  34
BRANCH  11  36
ATOM     36  O   UNL     1      -0.277   9.903  26.928  0.00  0.00    -0.384 OA
ATOM     37  H   UNL     1      -0.485   9.837  27.873  0.00  0.00    +0.000 HD
ENDBRANCH  11  36
BRANCH  22  38
ATOM     38  O   UNL     1      -4.154  14.547  27.212  0.00  0.00    -0.506 OA
ATOM     39  H   UNL     1      -4.941  14.111  26.946  0.00  0.00    +0.000 HD
ENDBRANCH  22  38
TORSDOF 5
ENDMDL
MODEL 8
REMARK minimizedAffinity -6.38265514
REMARK minimizedRMSD -1
REMARK  Name = 54675777
REMARK  8 active torsions:
REMARK  status: ('A' for Active; 'I' for Inactive)
REMARK    1  A    between atoms: O_2  and  C_15
REMARK    2  A    between atoms: O_3  and  C_17
REMARK    3  A    between atoms: O_8  and  C_30
REMARK    4  A    between atoms: N_10  and  C_16
REMARK    5  A    between atoms: N_10  and  C_28
REMARK    6  A    between atoms: N_10  and  C_29
REMARK    7  A    between atoms: C_17  and  C_26
REMARK    8  A    between atoms: C_24  and  C_31
REMARK                            x       y       z     vdW  Elec       q    Type
REMARK                         _______ _______ _______ _____ _____    ______ ____
ROOT
ATOM      1 CL   UNL     1      -2.034   9.460  21.166  0.00  0.00    -0.083 Cl
ATOM      2  O   UNL     1       0.308   9.640  28.608  0.00  0.00    -0.289 OA
ATOM      3  O   UNL     1      -2.432  10.699  29.491  0.00  0.00    -0.507 OA
ATOM      4  O   UNL     1      -1.884   8.005  27.526  0.00  0.00    -0.506 OA
ATOM      5  O   UNL     1      -3.672  14.540  26.940  0.00  0.00    -0.290 OA
ATOM      6  C   UNL     1      -0.593  12.666  26.826  0.00  0.00    +0.026 C 
ATOM      7  C   UNL     1      -0.292  10.634  25.318  0.00  0.00    +0.024 C 
ATOM      8  C   UNL     1      -1.014  11.982  25.489  0.00  0.00    -0.035 C 
ATOM      9  C   UNL     1      -0.781  11.764  28.075  0.00  0.00    +0.190 C 
ATOM     10  C   UNL     1      -1.346  13.998  26.977  0.00  0.00    +0.080 C 
ATOM     11  C   UNL     1      -0.484   9.919  23.949  0.00  0.00    +0.097 C 
ATOM     12  C   UNL     1      -0.711   9.782  26.476  0.00  0.00    +0.047 C 
ATOM     13  C   UNL     1      -0.312  10.325  27.800  0.00  0.00    +0.202 C 
ATOM     14  C   UNL     1      -2.212  11.725  28.584  0.00  0.00    +0.149 C 
ATOM     15  C   UNL     1      -1.707   9.005  23.920  0.00  0.00    +0.017 A 
ATOM     16  C   UNL     1      -2.801  13.761  27.327  0.00  0.00    +0.189 C 
ATOM     17  C   UNL     1      -1.531   8.724  26.402  0.00  0.00    +0.135 C 
ATOM     18  C   UNL     1      -3.165  12.602  28.207  0.00  0.00    +0.121 C 
ATOM     19  C   UNL     1      -2.174   8.396  25.110  0.00  0.00    +0.065 A 
ATOM     20  C   UNL     1       0.751   9.054  23.624  0.00  0.00    -0.031 C 
ATOM     21  C   UNL     1      -2.338   8.706  22.697  0.00  0.00    +0.048 A 
ATOM     22  C   UNL     1      -3.284   7.536  25.034  0.00  0.00    +0.128 A 
ATOM     23  C   UNL     1      -3.428   7.842  22.645  0.00  0.00    -0.040 A 
ATOM     24  C   UNL     1      -3.904   7.260  23.813  0.00  0.00    -0.018 A 
ENDROOT
BRANCH  18  27
ATOM     25  O   UNL     1      -5.299  11.598  28.197  0.00  0.00    -0.270 OA
ATOM     26  N   UNL     1      -4.909  13.365  29.632  0.00  0.00    -0.325 N 
ATOM     27  C   UNL     1      -4.559  12.457  28.663  0.00  0.00    +0.248 C 
ATOM     28  H   UNL     1      -5.818  13.358  30.008  0.00  0.00    +0.000 HD
ATOM     29  H   UNL     1      -4.250  14.024  29.950  0.00  0.00    +0.000 HD
ENDBRANCH  18  27
BRANCH  10  30
ATOM     30  N   UNL     1      -0.800  14.850  28.030  0.00  0.00    -0.298 N 
ATOM     31  C   UNL     1       0.576  15.230  27.716  0.00  0.00    -0.012 C 
ATOM     32  C   UNL     1      -1.633  16.038  28.207  0.00  0.00    -0.012 C 
ATOM     33  H   UNL     1      -0.798  14.325  28.905  0.00  0.00    +0.000 HD
ENDBRANCH  10  30
BRANCH   9  34
ATOM     34  O   UNL     1       0.028  12.243  29.150  0.00  0.00    -0.373 OA
ATOM     35  H   UNL     1       0.953  12.282  28.864  0.00  0.00    +0.000 HD
ENDBRANCH   9  34
BRANCH  11  36
ATOM     36  O   UNL     1      -0.592  10.906  22.920  0.00  0.00    -0.384 OA
ATOM     37  H   UNL     1      -1.362  11.471  23.093  0.00  0.00    +0.000 HD
ENDBRANCH  11  36
BRANCH  22  38
ATOM     38  O   UNL     1      -3.808   6.900  26.125  0.00  0.00    -0.506 OA
ATOM     39  H   UNL     1      -3.436   7.042  26.974  0.00  0.00    +0.000 HD
ENDBRANCH  22  38
TORSDOF 5
ENDMDL
