MODEL 1
REMARK minimizedAffinity -0.000185962461
REMARK minimizedRMSD -1
REMARK  Name = 54675776
REMARK  8 active torsions:
REMARK  status: ('A' for Active; 'I' for Inactive)
REMARK    1  A    between atoms: O_1  and  C_14
REMARK    2  A    between atoms: O_2  and  C_16
REMARK    3  A    between atoms: O_7  and  C_29
REMARK    4  A    between atoms: N_9  and  C_15
REMARK    5  A    between atoms: N_9  and  C_27
REMARK    6  A    between atoms: N_9  and  C_28
REMARK    7  A    between atoms: C_16  and  C_25
REMARK    8  A    between atoms: C_23  and  C_30
REMARK                            x       y       z     vdW  Elec       q    Type
REMARK                         _______ _______ _______ _____ _____    ______ ____
ROOT
ATOM      1  O   UNL     1      19.545  18.264  42.092  0.00  0.00    -0.289 OA
ATOM      2  O   UNL     1      17.897  15.827  42.981  0.00  0.00    -0.507 OA
ATOM      3  O   UNL     1      20.856  15.744  41.357  0.00  0.00    -0.506 OA
ATOM      4  O   UNL     1      14.198  15.119  40.044  0.00  0.00    -0.290 OA
ATOM      5  C   UNL     1      16.626  17.788  40.000  0.00  0.00    +0.026 C 
ATOM      6  C   UNL     1      18.837  17.592  38.742  0.00  0.00    +0.024 C 
ATOM      7  C   UNL     1      17.364  17.149  38.784  0.00  0.00    -0.035 C 
ATOM      8  C   UNL     1      17.329  17.533  41.361  0.00  0.00    +0.190 C 
ATOM      9  C   UNL     1      15.167  17.303  40.023  0.00  0.00    +0.080 C 
ATOM     10  C   UNL     1      19.652  17.164  37.486  0.00  0.00    +0.096 C 
ATOM     11  C   UNL     1      19.458  17.119  40.021  0.00  0.00    +0.047 C 
ATOM     12  C   UNL     1      18.852  17.713  41.241  0.00  0.00    +0.202 C 
ATOM     13  C   UNL     1      17.039  16.161  41.944  0.00  0.00    +0.149 C 
ATOM     14  C   UNL     1      20.339  15.809  37.647  0.00  0.00    -0.002 A 
ATOM     15  C   UNL     1      15.082  15.860  40.477  0.00  0.00    +0.189 C 
ATOM     16  C   UNL     1      20.350  16.125  40.130  0.00  0.00    +0.135 C 
ATOM     17  C   UNL     1      16.045  15.358  41.512  0.00  0.00    +0.121 C 
ATOM     18  C   UNL     1      20.710  15.339  38.929  0.00  0.00    +0.064 A 
ATOM     19  C   UNL     1      20.746  18.211  37.194  0.00  0.00    -0.031 C 
ATOM     20  C   UNL     1      20.674  15.049  36.510  0.00  0.00    -0.055 A 
ATOM     21  C   UNL     1      21.366  14.099  39.028  0.00  0.00    +0.128 A 
ATOM     22  C   UNL     1      21.336  13.830  36.631  0.00  0.00    -0.058 A 
ATOM     23  C   UNL     1      21.677  13.353  37.889  0.00  0.00    -0.019 A 
ENDROOT
BRANCH  17  26
ATOM     24  O   UNL     1      16.618  13.082  41.736  0.00  0.00    -0.270 OA
ATOM     25  N   UNL     1      14.813  13.895  42.924  0.00  0.00    -0.325 N 
ATOM     26  C   UNL     1      15.871  13.999  42.054  0.00  0.00    +0.248 C 
ATOM     27  H   UNL     1      14.606  13.029  43.345  0.00  0.00    +0.000 HD
ATOM     28  H   UNL     1      14.262  14.685  43.125  0.00  0.00    +0.000 HD
ENDBRANCH  17  26
BRANCH   9  29
ATOM     29  N   UNL     1      14.321  18.074  40.931  0.00  0.00    -0.298 N 
ATOM     30  C   UNL     1      14.237  19.465  40.491  0.00  0.00    -0.012 C 
ATOM     31  C   UNL     1      12.987  17.479  41.011  0.00  0.00    -0.012 C 
ATOM     32  H   UNL     1      14.739  18.054  41.860  0.00  0.00    +0.000 HD
ENDBRANCH   9  29
BRANCH   8  33
ATOM     33  O   UNL     1      16.893  18.493  42.323  0.00  0.00    -0.373 OA
ATOM     34  H   UNL     1      17.061  19.387  41.988  0.00  0.00    +0.000 HD
ENDBRANCH   8  33
BRANCH  10  35
ATOM     35  O   UNL     1      18.780  17.175  36.351  0.00  0.00    -0.384 OA
ATOM     36  H   UNL     1      18.068  16.529  36.484  0.00  0.00    +0.000 HD
ENDBRANCH  10  35
BRANCH  21  37
ATOM     37  O   UNL     1      21.763  13.561  40.220  0.00  0.00    -0.506 OA
ATOM     38  H   UNL     1      21.585  14.012  41.021  0.00  0.00    +0.000 HD
ENDBRANCH  21  37
TORSDOF 5
ENDMDL
MODEL 2
REMARK minimizedAffinity -4.79814589e-05
REMARK minimizedRMSD -1
REMARK  Name = 54675776
REMARK  8 active torsions:
REMARK  status: ('A' for Active; 'I' for Inactive)
REMARK    1  A    between atoms: O_1  and  C_14
REMARK    2  A    between atoms: O_2  and  C_16
REMARK    3  A    between atoms: O_7  and  C_29
REMARK    4  A    between atoms: N_9  and  C_15
REMARK    5  A    between atoms: N_9  and  C_27
REMARK    6  A    between atoms: N_9  and  C_28
REMARK    7  A    between atoms: C_16  and  C_25
REMARK    8  A    between atoms: C_23  and  C_30
REMARK                            x       y       z     vdW  Elec       q    Type
REMARK                         _______ _______ _______ _____ _____    ______ ____
ROOT
ATOM      1  O   UNL     1      15.757  17.203  39.657  0.00  0.00    -0.289 OA
ATOM      2  O   UNL     1      17.201  16.826  36.970  0.00  0.00    -0.507 OA
ATOM      3  O   UNL     1      18.649  17.628  39.912  0.00  0.00    -0.506 OA
ATOM      4  O   UNL     1      16.574  20.636  34.160  0.00  0.00    -0.290 OA
ATOM      5  C   UNL     1      15.168  19.989  37.419  0.00  0.00    +0.026 C 
ATOM      6  C   UNL     1      16.375  20.635  39.572  0.00  0.00    +0.024 C 
ATOM      7  C   UNL     1      16.162  20.987  38.090  0.00  0.00    -0.035 C 
ATOM      8  C   UNL     1      15.566  18.499  37.593  0.00  0.00    +0.190 C 
ATOM      9  C   UNL     1      15.000  20.356  35.936  0.00  0.00    +0.080 C 
ATOM     10  C   UNL     1      17.214  21.647  40.409  0.00  0.00    +0.096 C 
ATOM     11  C   UNL     1      16.945  19.250  39.601  0.00  0.00    +0.047 C 
ATOM     12  C   UNL     1      16.046  18.216  39.027  0.00  0.00    +0.202 C 
ATOM     13  C   UNL     1      16.636  18.042  36.616  0.00  0.00    +0.149 C 
ATOM     14  C   UNL     1      18.711  21.343  40.394  0.00  0.00    -0.002 A 
ATOM     15  C   UNL     1      16.230  19.972  35.139  0.00  0.00    +0.189 C 
ATOM     16  C   UNL     1      18.205  18.936  39.932  0.00  0.00    +0.135 C 
ATOM     17  C   UNL     1      16.991  18.735  35.514  0.00  0.00    +0.121 C 
ATOM     18  C   UNL     1      19.175  20.020  40.206  0.00  0.00    +0.064 A 
ATOM     19  C   UNL     1      16.746  21.622  41.877  0.00  0.00    -0.031 C 
ATOM     20  C   UNL     1      19.641  22.371  40.642  0.00  0.00    -0.055 A 
ATOM     21  C   UNL     1      20.561  19.782  40.229  0.00  0.00    +0.128 A 
ATOM     22  C   UNL     1      21.009  22.110  40.673  0.00  0.00    -0.058 A 
ATOM     23  C   UNL     1      21.468  20.817  40.461  0.00  0.00    -0.019 A 
ENDROOT
BRANCH  17  26
ATOM     24  O   UNL     1      19.269  18.420  34.996  0.00  0.00    -0.270 OA
ATOM     25  N   UNL     1      17.677  17.723  33.475  0.00  0.00    -0.325 N 
ATOM     26  C   UNL     1      18.100  18.286  34.654  0.00  0.00    +0.248 C 
ATOM     27  H   UNL     1      18.337  17.389  32.825  0.00  0.00    +0.000 HD
ATOM     28  H   UNL     1      16.715  17.654  33.280  0.00  0.00    +0.000 HD
ENDBRANCH  17  26
BRANCH   9  29
ATOM     29  N   UNL     1      13.869  19.682  35.303  0.00  0.00    -0.298 N 
ATOM     30  C   UNL     1      12.614  20.096  35.927  0.00  0.00    -0.012 C 
ATOM     31  C   UNL     1      13.846  19.965  33.868  0.00  0.00    -0.012 C 
ATOM     32  H   UNL     1      13.977  18.676  35.431  0.00  0.00    +0.000 HD
ENDBRANCH   9  29
BRANCH   8  33
ATOM     33  O   UNL     1      14.430  17.662  37.384  0.00  0.00    -0.373 OA
ATOM     34  H   UNL     1      13.720  17.922  37.991  0.00  0.00    +0.000 HD
ENDBRANCH   8  33
BRANCH  10  35
ATOM     35  O   UNL     1      16.945  22.968  39.929  0.00  0.00    -0.384 OA
ATOM     36  H   UNL     1      17.223  23.039  39.002  0.00  0.00    +0.000 HD
ENDBRANCH  10  35
BRANCH  21  37
ATOM     37  O   UNL     1      21.105  18.540  40.057  0.00  0.00    -0.506 OA
ATOM     38  H   UNL     1      20.550  17.802  39.897  0.00  0.00    +0.000 HD
ENDBRANCH  21  37
TORSDOF 5
ENDMDL
MODEL 3
REMARK minimizedAffinity 0
REMARK minimizedRMSD -1
REMARK  Name = 54675776
REMARK  8 active torsions:
REMARK  status: ('A' for Active; 'I' for Inactive)
REMARK    1  A    between atoms: O_1  and  C_14
REMARK    2  A    between atoms: O_2  and  C_16
REMARK    3  A    between atoms: O_7  and  C_29
REMARK    4  A    between atoms: N_9  and  C_15
REMARK    5  A    between atoms: N_9  and  C_27
REMARK    6  A    between atoms: N_9  and  C_28
REMARK    7  A    between atoms: C_16  and  C_25
REMARK    8  A    between atoms: C_23  and  C_30
REMARK                            x       y       z     vdW  Elec       q    Type
REMARK                         _______ _______ _______ _____ _____    ______ ____
ROOT
ATOM      1  O   UNL     1      15.140  23.507  40.050  0.00  0.00    -0.289 OA
ATOM      2  O   UNL     1      14.990  21.101  38.143  0.00  0.00    -0.507 OA
ATOM      3  O   UNL     1      14.975  24.355  37.246  0.00  0.00    -0.506 OA
ATOM      4  O   UNL     1      10.608  19.202  38.151  0.00  0.00    -0.290 OA
ATOM      5  C   UNL     1      11.885  21.921  40.151  0.00  0.00    +0.026 C 
ATOM      6  C   UNL     1      11.826  24.342  39.348  0.00  0.00    +0.024 C 
ATOM      7  C   UNL     1      11.134  22.970  39.275  0.00  0.00    -0.035 C 
ATOM      8  C   UNL     1      13.398  21.805  39.825  0.00  0.00    +0.190 C 
ATOM      9  C   UNL     1      11.181  20.560  40.033  0.00  0.00    +0.080 C 
ATOM     10  C   UNL     1      11.089  25.526  38.655  0.00  0.00    +0.096 C 
ATOM     11  C   UNL     1      13.216  24.143  38.826  0.00  0.00    +0.047 C 
ATOM     12  C   UNL     1      14.031  23.193  39.626  0.00  0.00    +0.202 C 
ATOM     13  C   UNL     1      13.691  20.951  38.605  0.00  0.00    +0.149 C 
ATOM     14  C   UNL     1      11.479  25.702  37.188  0.00  0.00    -0.002 A 
ATOM     15  C   UNL     1      11.453  19.922  38.685  0.00  0.00    +0.189 C 
ATOM     16  C   UNL     1      13.679  24.605  37.656  0.00  0.00    +0.135 C 
ATOM     17  C   UNL     1      12.791  20.122  38.036  0.00  0.00    +0.121 C 
ATOM     18  C   UNL     1      12.753  25.292  36.729  0.00  0.00    +0.064 A 
ATOM     19  C   UNL     1      11.417  26.843  39.387  0.00  0.00    -0.031 C 
ATOM     20  C   UNL     1      10.598  26.344  36.297  0.00  0.00    -0.055 A 
ATOM     21  C   UNL     1      13.080  25.499  35.377  0.00  0.00    +0.128 A 
ATOM     22  C   UNL     1      10.948  26.550  34.965  0.00  0.00    -0.058 A 
ATOM     23  C   UNL     1      12.186  26.124  34.505  0.00  0.00    -0.019 A 
ENDROOT
BRANCH  17  26
ATOM     24  O   UNL     1      13.128  19.950  35.709  0.00  0.00    -0.270 OA
ATOM     25  N   UNL     1      13.355  18.054  37.008  0.00  0.00    -0.325 N 
ATOM     26  C   UNL     1      13.104  19.388  36.798  0.00  0.00    +0.248 C 
ATOM     27  H   UNL     1      13.576  17.469  36.247  0.00  0.00    +0.000 HD
ATOM     28  H   UNL     1      13.314  17.683  37.919  0.00  0.00    +0.000 HD
ENDBRANCH  17  26
BRANCH   9  29
ATOM     29  N   UNL     1      11.617  19.598  41.042  0.00  0.00    -0.298 N 
ATOM     30  C   UNL     1      11.275  20.074  42.381  0.00  0.00    -0.012 C 
ATOM     31  C   UNL     1      11.014  18.289  40.793  0.00  0.00    -0.012 C 
ATOM     32  H   UNL     1      12.631  19.502  40.983  0.00  0.00    +0.000 HD
ENDBRANCH   9  29
BRANCH   8  33
ATOM     33  O   UNL     1      14.090  21.210  40.923  0.00  0.00    -0.373 OA
ATOM     34  H   UNL     1      13.929  21.728  41.727  0.00  0.00    +0.000 HD
ENDBRANCH   8  33
BRANCH  10  35
ATOM     35  O   UNL     1       9.678  25.332  38.800  0.00  0.00    -0.384 OA
ATOM     36  H   UNL     1       9.417  24.510  38.353  0.00  0.00    +0.000 HD
ENDBRANCH  10  35
BRANCH  21  37
ATOM     37  O   UNL     1      14.283  25.137  34.839  0.00  0.00    -0.506 OA
ATOM     38  H   UNL     1      14.927  24.714  35.371  0.00  0.00    +0.000 HD
ENDBRANCH  21  37
TORSDOF 5
ENDMDL
MODEL 4
REMARK minimizedAffinity 0.000710732362
REMARK minimizedRMSD -1
REMARK  Name = 54675776
REMARK  8 active torsions:
REMARK  status: ('A' for Active; 'I' for Inactive)
REMARK    1  A    between atoms: O_1  and  C_14
REMARK    2  A    between atoms: O_2  and  C_16
REMARK    3  A    between atoms: O_7  and  C_29
REMARK    4  A    between atoms: N_9  and  C_15
REMARK    5  A    between atoms: N_9  and  C_27
REMARK    6  A    between atoms: N_9  and  C_28
REMARK    7  A    between atoms: C_16  and  C_25
REMARK    8  A    between atoms: C_23  and  C_30
REMARK                            x       y       z     vdW  Elec       q    Type
REMARK                         _______ _______ _______ _____ _____    ______ ____
ROOT
ATOM      1  O   UNL     1      15.134  17.484  40.142  0.00  0.00    -0.289 OA
ATOM      2  O   UNL     1      12.948  16.466  38.235  0.00  0.00    -0.507 OA
ATOM      3  O   UNL     1      14.180  19.607  38.354  0.00  0.00    -0.506 OA
ATOM      4  O   UNL     1       8.767  16.071  40.507  0.00  0.00    -0.290 OA
ATOM      5  C   UNL     1      11.981  16.999  41.858  0.00  0.00    +0.026 C 
ATOM      6  C   UNL     1      12.802  19.414  41.875  0.00  0.00    +0.024 C 
ATOM      7  C   UNL     1      11.565  18.500  41.922  0.00  0.00    -0.035 C 
ATOM      8  C   UNL     1      12.890  16.654  40.647  0.00  0.00    +0.190 C 
ATOM      9  C   UNL     1      10.721  16.119  41.881  0.00  0.00    +0.080 C 
ATOM     10  C   UNL     1      12.546  20.935  42.099  0.00  0.00    +0.096 C 
ATOM     11  C   UNL     1      13.489  19.131  40.574  0.00  0.00    +0.047 C 
ATOM     12  C   UNL     1      13.968  17.731  40.438  0.00  0.00    +0.202 C 
ATOM     13  C   UNL     1      12.124  16.465  39.350  0.00  0.00    +0.149 C 
ATOM     14  C   UNL     1      12.262  21.694  40.804  0.00  0.00    -0.002 A 
ATOM     15  C   UNL     1       9.993  16.177  40.553  0.00  0.00    +0.189 C 
ATOM     16  C   UNL     1      13.537  19.962  39.524  0.00  0.00    +0.135 C 
ATOM     17  C   UNL     1      10.786  16.300  39.286  0.00  0.00    +0.121 C 
ATOM     18  C   UNL     1      12.785  21.236  39.572  0.00  0.00    +0.064 A 
ATOM     19  C   UNL     1      13.783  21.578  42.757  0.00  0.00    -0.031 C 
ATOM     20  C   UNL     1      11.537  22.901  40.840  0.00  0.00    -0.055 A 
ATOM     21  C   UNL     1      12.523  21.982  38.410  0.00  0.00    +0.128 A 
ATOM     22  C   UNL     1      11.300  23.631  39.677  0.00  0.00    -0.058 A 
ATOM     23  C   UNL     1      11.789  23.169  38.463  0.00  0.00    -0.019 A 
ENDROOT
BRANCH  17  26
ATOM     24  O   UNL     1       9.901  17.208  37.298  0.00  0.00    -0.270 OA
ATOM     25  N   UNL     1       9.693  14.939  37.673  0.00  0.00    -0.325 N 
ATOM     26  C   UNL     1      10.088  16.214  37.991  0.00  0.00    +0.248 C 
ATOM     27  H   UNL     1       9.217  14.768  36.828  0.00  0.00    +0.000 HD
ATOM     28  H   UNL     1       9.885  14.196  38.290  0.00  0.00    +0.000 HD
ENDBRANCH  17  26
BRANCH   9  29
ATOM     29  N   UNL     1      11.010  14.709  42.133  0.00  0.00    -0.298 N 
ATOM     30  C   UNL     1      11.598  14.539  43.460  0.00  0.00    -0.012 C 
ATOM     31  C   UNL     1       9.793  13.909  42.004  0.00  0.00    -0.012 C 
ATOM     32  H   UNL     1      11.683  14.386  41.438  0.00  0.00    +0.000 HD
ENDBRANCH   9  29
BRANCH   8  33
ATOM     33  O   UNL     1      13.592  15.436  40.894  0.00  0.00    -0.373 OA
ATOM     34  H   UNL     1      14.097  15.515  41.719  0.00  0.00    +0.000 HD
ENDBRANCH   8  33
BRANCH  10  35
ATOM     35  O   UNL     1      11.475  21.083  43.037  0.00  0.00    -0.384 OA
ATOM     36  H   UNL     1      10.666  20.692  42.669  0.00  0.00    +0.000 HD
ENDBRANCH  10  35
BRANCH  21  37
ATOM     37  O   UNL     1      12.983  21.621  37.174  0.00  0.00    -0.506 OA
ATOM     38  H   UNL     1      13.482  20.836  37.071  0.00  0.00    +0.000 HD
ENDBRANCH  21  37
TORSDOF 5
ENDMDL
MODEL 5
REMARK minimizedAffinity 0.000863173744
REMARK minimizedRMSD -1
REMARK  Name = 54675776
REMARK  8 active torsions:
REMARK  status: ('A' for Active; 'I' for Inactive)
REMARK    1  A    between atoms: O_1  and  C_14
REMARK    2  A    between atoms: O_2  and  C_16
REMARK    3  A    between atoms: O_7  and  C_29
REMARK    4  A    between atoms: N_9  and  C_15
REMARK    5  A    between atoms: N_9  and  C_27
REMARK    6  A    between atoms: N_9  and  C_28
REMARK    7  A    between atoms: C_16  and  C_25
REMARK    8  A    between atoms: C_23  and  C_30
REMARK                            x       y       z     vdW  Elec       q    Type
REMARK                         _______ _______ _______ _____ _____    ______ ____
ROOT
ATOM      1  O   UNL     1      17.913  19.198  31.446  0.00  0.00    -0.289 OA
ATOM      2  O   UNL     1      17.427  21.427  33.507  0.00  0.00    -0.507 OA
ATOM      3  O   UNL     1      20.266  19.637  33.143  0.00  0.00    -0.506 OA
ATOM      4  O   UNL     1      14.733  19.838  37.116  0.00  0.00    -0.290 OA
ATOM      5  C   UNL     1      15.729  18.097  34.117  0.00  0.00    +0.026 C 
ATOM      6  C   UNL     1      17.914  16.788  33.968  0.00  0.00    +0.024 C 
ATOM      7  C   UNL     1      16.791  17.268  34.904  0.00  0.00    -0.035 C 
ATOM      8  C   UNL     1      16.331  19.277  33.309  0.00  0.00    +0.190 C 
ATOM      9  C   UNL     1      14.639  18.580  35.087  0.00  0.00    +0.080 C 
ATOM     10  C   UNL     1      18.956  15.809  34.586  0.00  0.00    +0.096 C 
ATOM     11  C   UNL     1      18.548  18.021  33.400  0.00  0.00    +0.047 C 
ATOM     12  C   UNL     1      17.623  18.855  32.589  0.00  0.00    +0.202 C 
ATOM     13  C   UNL     1      16.618  20.505  34.155  0.00  0.00    +0.149 C 
ATOM     14  C   UNL     1      20.149  16.522  35.220  0.00  0.00    -0.002 A 
ATOM     15  C   UNL     1      15.152  19.702  35.966  0.00  0.00    +0.189 C 
ATOM     16  C   UNL     1      19.770  18.477  33.705  0.00  0.00    +0.135 C 
ATOM     17  C   UNL     1      16.128  20.690  35.399  0.00  0.00    +0.121 C 
ATOM     18  C   UNL     1      20.559  17.793  34.754  0.00  0.00    +0.064 A 
ATOM     19  C   UNL     1      19.501  14.870  33.490  0.00  0.00    -0.031 C 
ATOM     20  C   UNL     1      20.898  15.883  36.228  0.00  0.00    -0.055 A 
ATOM     21  C   UNL     1      21.680  18.399  35.348  0.00  0.00    +0.128 A 
ATOM     22  C   UNL     1      22.013  16.497  36.793  0.00  0.00    -0.058 A 
ATOM     23  C   UNL     1      22.400  17.756  36.356  0.00  0.00    -0.019 A 
ENDROOT
BRANCH  17  26
ATOM     24  O   UNL     1      17.620  21.935  36.735  0.00  0.00    -0.270 OA
ATOM     25  N   UNL     1      15.532  22.813  36.287  0.00  0.00    -0.325 N 
ATOM     26  C   UNL     1      16.517  21.860  36.206  0.00  0.00    +0.248 C 
ATOM     27  H   UNL     1      15.686  23.637  36.804  0.00  0.00    +0.000 HD
ATOM     28  H   UNL     1      14.672  22.671  35.830  0.00  0.00    +0.000 HD
ENDBRANCH  17  26
BRANCH   9  29
ATOM     29  N   UNL     1      13.453  19.095  34.407  0.00  0.00    -0.298 N 
ATOM     30  C   UNL     1      12.810  18.036  33.631  0.00  0.00    -0.012 C 
ATOM     31  C   UNL     1      12.516  19.662  35.376  0.00  0.00    -0.012 C 
ATOM     32  H   UNL     1      13.741  19.834  33.767  0.00  0.00    +0.000 HD
ENDBRANCH   9  29
BRANCH   8  33
ATOM     33  O   UNL     1      15.424  19.682  32.285  0.00  0.00    -0.373 OA
ATOM     34  H   UNL     1      15.213  18.923  31.720  0.00  0.00    +0.000 HD
ENDBRANCH   8  33
BRANCH  10  35
ATOM     35  O   UNL     1      18.287  14.968  35.532  0.00  0.00    -0.384 OA
ATOM     36  H   UNL     1      17.923  15.513  36.248  0.00  0.00    +0.000 HD
ENDBRANCH  10  35
BRANCH  21  37
ATOM     37  O   UNL     1      22.152  19.625  34.968  0.00  0.00    -0.506 OA
ATOM     38  H   UNL     1      21.714  20.108  34.296  0.00  0.00    +0.000 HD
ENDBRANCH  21  37
TORSDOF 5
ENDMDL
MODEL 6
REMARK minimizedAffinity 0.000863173744
REMARK minimizedRMSD -1
REMARK  Name = 54675776
REMARK  8 active torsions:
REMARK  status: ('A' for Active; 'I' for Inactive)
REMARK    1  A    between atoms: O_1  and  C_14
REMARK    2  A    between atoms: O_2  and  C_16
REMARK    3  A    between atoms: O_7  and  C_29
REMARK    4  A    between atoms: N_9  and  C_15
REMARK    5  A    between atoms: N_9  and  C_27
REMARK    6  A    between atoms: N_9  and  C_28
REMARK    7  A    between atoms: C_16  and  C_25
REMARK    8  A    between atoms: C_23  and  C_30
REMARK                            x       y       z     vdW  Elec       q    Type
REMARK                         _______ _______ _______ _____ _____    ______ ____
ROOT
ATOM      1  O   UNL     1      13.585  14.935  38.037  0.00  0.00    -0.289 OA
ATOM      2  O   UNL     1      16.348  14.598  39.342  0.00  0.00    -0.507 OA
ATOM      3  O   UNL     1      13.813  12.371  39.445  0.00  0.00    -0.506 OA
ATOM      4  O   UNL     1      16.656  17.180  43.347  0.00  0.00    -0.290 OA
ATOM      5  C   UNL     1      13.934  17.010  40.985  0.00  0.00    +0.026 C 
ATOM      6  C   UNL     1      12.083  15.264  41.168  0.00  0.00    +0.024 C 
ATOM      7  C   UNL     1      13.101  16.113  41.951  0.00  0.00    -0.035 C 
ATOM      8  C   UNL     1      14.623  16.222  39.839  0.00  0.00    +0.190 C 
ATOM      9  C   UNL     1      14.955  17.823  41.798  0.00  0.00    +0.080 C 
ATOM     10  C   UNL     1      11.069  14.444  42.019  0.00  0.00    +0.096 C 
ATOM     11  C   UNL     1      12.879  14.405  40.234  0.00  0.00    +0.047 C 
ATOM     12  C   UNL     1      13.673  15.171  39.238  0.00  0.00    +0.202 C 
ATOM     13  C   UNL     1      15.910  15.537  40.264  0.00  0.00    +0.149 C 
ATOM     14  C   UNL     1      11.571  13.044  42.370  0.00  0.00    -0.002 A 
ATOM     15  C   UNL     1      16.091  16.944  42.279  0.00  0.00    +0.189 C 
ATOM     16  C   UNL     1      13.044  13.080  40.347  0.00  0.00    +0.135 C 
ATOM     17  C   UNL     1      16.566  15.818  41.409  0.00  0.00    +0.121 C 
ATOM     18  C   UNL     1      12.493  12.379  41.528  0.00  0.00    +0.064 A 
ATOM     19  C   UNL     1       9.747  14.286  41.242  0.00  0.00    -0.031 C 
ATOM     20  C   UNL     1      11.060  12.375  43.499  0.00  0.00    -0.055 A 
ATOM     21  C   UNL     1      12.905  11.080  41.874  0.00  0.00    +0.128 A 
ATOM     22  C   UNL     1      11.473  11.083  43.816  0.00  0.00    -0.058 A 
ATOM     23  C   UNL     1      12.399  10.439  43.006  0.00  0.00    -0.019 A 
ENDROOT
BRANCH  17  26
ATOM     24  O   UNL     1      17.672  13.916  42.257  0.00  0.00    -0.270 OA
ATOM     25  N   UNL     1      18.932  15.747  41.633  0.00  0.00    -0.325 N 
ATOM     26  C   UNL     1      17.760  15.055  41.812  0.00  0.00    +0.248 C 
ATOM     27  H   UNL     1      19.791  15.330  41.870  0.00  0.00    +0.000 HD
ATOM     28  H   UNL     1      18.912  16.661  41.267  0.00  0.00    +0.000 HD
ENDBRANCH  17  26
BRANCH   9  29
ATOM     29  N   UNL     1      15.566  18.907  41.032  0.00  0.00    -0.298 N 
ATOM     30  C   UNL     1      14.553  19.883  40.634  0.00  0.00    -0.012 C 
ATOM     31  C   UNL     1      16.620  19.552  41.814  0.00  0.00    -0.012 C 
ATOM     32  H   UNL     1      15.984  18.515  40.189  0.00  0.00    +0.000 HD
ENDBRANCH   9  29
BRANCH   8  33
ATOM     33  O   UNL     1      14.959  17.106  38.770  0.00  0.00    -0.373 OA
ATOM     34  H   UNL     1      14.160  17.567  38.468  0.00  0.00    +0.000 HD
ENDBRANCH   8  33
BRANCH  10  35
ATOM     35  O   UNL     1      10.750  15.194  43.196  0.00  0.00    -0.384 OA
ATOM     36  H   UNL     1      11.553  15.322  43.725  0.00  0.00    +0.000 HD
ENDBRANCH  10  35
BRANCH  21  37
ATOM     37  O   UNL     1      13.792  10.357  41.127  0.00  0.00    -0.506 OA
ATOM     38  H   UNL     1      14.168  10.730  40.354  0.00  0.00    +0.000 HD
ENDBRANCH  21  37
TORSDOF 5
ENDMDL
MODEL 7
REMARK minimizedAffinity 0.000863173744
REMARK minimizedRMSD -1
REMARK  Name = 54675776
REMARK  8 active torsions:
REMARK  status: ('A' for Active; 'I' for Inactive)
REMARK    1  A    between atoms: O_1  and  C_14
REMARK    2  A    between atoms: O_2  and  C_16
REMARK    3  A    between atoms: O_7  and  C_29
REMARK    4  A    between atoms: N_9  and  C_15
REMARK    5  A    between atoms: N_9  and  C_27
REMARK    6  A    between atoms: N_9  and  C_28
REMARK    7  A    between atoms: C_16  and  C_25
REMARK    8  A    between atoms: C_23  and  C_30
REMARK                            x       y       z     vdW  Elec       q    Type
REMARK                         _______ _______ _______ _____ _____    ______ ____
ROOT
ATOM      1  O   UNL     1      12.712  19.116  46.386  0.00  0.00    -0.289 OA
ATOM      2  O   UNL     1      15.000  19.992  44.529  0.00  0.00    -0.507 OA
ATOM      3  O   UNL     1      11.854  21.218  44.526  0.00  0.00    -0.506 OA
ATOM      4  O   UNL     1      15.696  16.779  41.066  0.00  0.00    -0.290 OA
ATOM      5  C   UNL     1      13.399  16.629  43.844  0.00  0.00    +0.026 C 
ATOM      6  C   UNL     1      11.047  17.609  43.716  0.00  0.00    +0.024 C 
ATOM      7  C   UNL     1      12.192  16.966  42.915  0.00  0.00    -0.035 C 
ATOM      8  C   UNL     1      13.904  17.839  44.675  0.00  0.00    +0.190 C 
ATOM      9  C   UNL     1      14.531  16.013  43.006  0.00  0.00    +0.080 C 
ATOM     10  C   UNL     1       9.713  17.845  42.947  0.00  0.00    +0.096 C 
ATOM     11  C   UNL     1      11.601  18.868  44.310  0.00  0.00    +0.047 C 
ATOM     12  C   UNL     1      12.728  18.646  45.252  0.00  0.00    +0.202 C 
ATOM     13  C   UNL     1      14.807  18.776  43.893  0.00  0.00    +0.149 C 
ATOM     14  C   UNL     1       9.647  19.209  42.262  0.00  0.00    -0.002 A 
ATOM     15  C   UNL     1      15.220  17.068  42.164  0.00  0.00    +0.189 C 
ATOM     16  C   UNL     1      11.277  20.113  43.933  0.00  0.00    +0.135 C 
ATOM     17  C   UNL     1      15.375  18.456  42.711  0.00  0.00    +0.121 C 
ATOM     18  C   UNL     1      10.375  20.308  42.776  0.00  0.00    +0.064 A 
ATOM     19  C   UNL     1       8.526  17.756  43.926  0.00  0.00    -0.031 C 
ATOM     20  C   UNL     1       8.800  19.400  41.153  0.00  0.00    -0.055 A 
ATOM     21  C   UNL     1      10.261  21.552  42.130  0.00  0.00    +0.128 A 
ATOM     22  C   UNL     1       8.694  20.645  40.537  0.00  0.00    -0.058 A 
ATOM     23  C   UNL     1       9.428  21.718  41.022  0.00  0.00    -0.019 A 
ENDROOT
BRANCH  17  26
ATOM     24  O   UNL     1      15.633  20.356  41.338  0.00  0.00    -0.270 OA
ATOM     25  N   UNL     1      17.520  19.215  42.021  0.00  0.00    -0.325 N 
ATOM     26  C   UNL     1      16.168  19.441  41.953  0.00  0.00    +0.248 C 
ATOM     27  H   UNL     1      18.143  19.814  41.550  0.00  0.00    +0.000 HD
ATOM     28  H   UNL     1      17.866  18.453  42.540  0.00  0.00    +0.000 HD
ENDBRANCH  17  26
BRANCH   9  29
ATOM     29  N   UNL     1      15.571  15.388  43.819  0.00  0.00    -0.298 N 
ATOM     30  C   UNL     1      15.021  14.263  44.574  0.00  0.00    -0.012 C 
ATOM     31  C   UNL     1      16.680  14.944  42.974  0.00  0.00    -0.012 C 
ATOM     32  H   UNL     1      15.926  16.077  44.480  0.00  0.00    +0.000 HD
ENDBRANCH   9  29
BRANCH   8  33
ATOM     33  O   UNL     1      14.656  17.381  45.798  0.00  0.00    -0.373 OA
ATOM     34  H   UNL     1      14.113  16.776  46.327  0.00  0.00    +0.000 HD
ENDBRANCH   8  33
BRANCH  10  35
ATOM     35  O   UNL     1       9.534  16.780  42.008  0.00  0.00    -0.384 OA
ATOM     36  H   UNL     1      10.261  16.791  41.364  0.00  0.00    +0.000 HD
ENDBRANCH  10  35
BRANCH  21  37
ATOM     37  O   UNL     1      10.924  22.671  42.550  0.00  0.00    -0.506 OA
ATOM     38  H   UNL     1      11.499  22.627  43.288  0.00  0.00    +0.000 HD
ENDBRANCH  21  37
TORSDOF 5
ENDMDL
MODEL 8
REMARK minimizedAffinity 0.000863173744
REMARK minimizedRMSD -1
REMARK  Name = 54675776
REMARK  8 active torsions:
REMARK  status: ('A' for Active; 'I' for Inactive)
REMARK    1  A    between atoms: O_1  and  C_14
REMARK    2  A    between atoms: O_2  and  C_16
REMARK    3  A    between atoms: O_7  and  C_29
REMARK    4  A    between atoms: N_9  and  C_15
REMARK    5  A    between atoms: N_9  and  C_27
REMARK    6  A    between atoms: N_9  and  C_28
REMARK    7  A    between atoms: C_16  and  C_25
REMARK    8  A    between atoms: C_23  and  C_30
REMARK                            x       y       z     vdW  Elec       q    Type
REMARK                         _______ _______ _______ _____ _____    ______ ____
ROOT
ATOM      1  O   UNL     1      14.779  16.934  40.257  0.00  0.00    -0.289 OA
ATOM      2  O   UNL     1      15.155  19.951  40.710  0.00  0.00    -0.507 OA
ATOM      3  O   UNL     1      14.070  18.485  37.869  0.00  0.00    -0.506 OA
ATOM      4  O   UNL     1      19.777  21.134  40.487  0.00  0.00    -0.290 OA
ATOM      5  C   UNL     1      18.281  17.858  40.273  0.00  0.00    +0.026 C 
ATOM      6  C   UNL     1      17.487  16.869  38.059  0.00  0.00    +0.024 C 
ATOM      7  C   UNL     1      18.497  17.817  38.729  0.00  0.00    -0.035 C 
ATOM      8  C   UNL     1      16.826  18.200  40.691  0.00  0.00    +0.190 C 
ATOM      9  C   UNL     1      19.289  18.832  40.903  0.00  0.00    +0.080 C 
ATOM     10  C   UNL     1      17.694  16.601  36.538  0.00  0.00    +0.096 C 
ATOM     11  C   UNL     1      16.126  17.412  38.370  0.00  0.00    +0.047 C 
ATOM     12  C   UNL     1      15.806  17.445  39.820  0.00  0.00    +0.202 C 
ATOM     13  C   UNL     1      16.514  19.685  40.639  0.00  0.00    +0.149 C 
ATOM     14  C   UNL     1      16.951  17.596  35.647  0.00  0.00    -0.002 A 
ATOM     15  C   UNL     1      18.908  20.270  40.613  0.00  0.00    +0.189 C 
ATOM     16  C   UNL     1      15.303  17.995  37.488  0.00  0.00    +0.135 C 
ATOM     17  C   UNL     1      17.457  20.646  40.547  0.00  0.00    +0.121 C 
ATOM     18  C   UNL     1      15.771  18.229  36.103  0.00  0.00    +0.064 A 
ATOM     19  C   UNL     1      17.188  15.188  36.186  0.00  0.00    -0.031 C 
ATOM     20  C   UNL     1      17.398  17.833  34.333  0.00  0.00    -0.055 A 
ATOM     21  C   UNL     1      15.105  19.114  35.238  0.00  0.00    +0.128 A 
ATOM     22  C   UNL     1      16.714  18.704  33.488  0.00  0.00    -0.058 A 
ATOM     23  C   UNL     1      15.572  19.348  33.943  0.00  0.00    -0.019 A 
ENDROOT
BRANCH  17  26
ATOM     24  O   UNL     1      16.667  22.516  39.349  0.00  0.00    -0.270 OA
ATOM     25  N   UNL     1      17.270  22.788  41.561  0.00  0.00    -0.325 N 
ATOM     26  C   UNL     1      17.089  22.066  40.407  0.00  0.00    +0.248 C 
ATOM     27  H   UNL     1      17.055  23.749  41.578  0.00  0.00    +0.000 HD
ATOM     28  H   UNL     1      17.615  22.346  42.369  0.00  0.00    +0.000 HD
ENDBRANCH  17  26
BRANCH   9  29
ATOM     29  N   UNL     1      19.373  18.711  42.356  0.00  0.00    -0.298 N 
ATOM     30  C   UNL     1      19.863  17.386  42.729  0.00  0.00    -0.012 C 
ATOM     31  C   UNL     1      20.241  19.752  42.905  0.00  0.00    -0.012 C 
ATOM     32  H   UNL     1      18.439  18.831  42.747  0.00  0.00    +0.000 HD
ENDBRANCH   9  29
BRANCH   8  33
ATOM     33  O   UNL     1      16.590  17.774  42.033  0.00  0.00    -0.373 OA
ATOM     34  H   UNL     1      16.778  16.826  42.110  0.00  0.00    +0.000 HD
ENDBRANCH   8  33
BRANCH  10  35
ATOM     35  O   UNL     1      19.098  16.601  36.262  0.00  0.00    -0.384 OA
ATOM     36  H   UNL     1      19.469  17.474  36.469  0.00  0.00    +0.000 HD
ENDBRANCH  10  35
BRANCH  21  37
ATOM     37  O   UNL     1      13.960  19.774  35.587  0.00  0.00    -0.506 OA
ATOM     38  H   UNL     1      13.595  19.661  36.442  0.00  0.00    +0.000 HD
ENDBRANCH  21  37
TORSDOF 5
ENDMDL
MODEL 9
REMARK minimizedAffinity 0.000863173744
REMARK minimizedRMSD -1
REMARK  Name = 54675776
REMARK  8 active torsions:
REMARK  status: ('A' for Active; 'I' for Inactive)
REMARK    1  A    between atoms: O_1  and  C_14
REMARK    2  A    between atoms: O_2  and  C_16
REMARK    3  A    between atoms: O_7  and  C_29
REMARK    4  A    between atoms: N_9  and  C_15
REMARK    5  A    between atoms: N_9  and  C_27
REMARK    6  A    between atoms: N_9  and  C_28
REMARK    7  A    between atoms: C_16  and  C_25
REMARK    8  A    between atoms: C_23  and  C_30
REMARK                            x       y       z     vdW  Elec       q    Type
REMARK                         _______ _______ _______ _____ _____    ______ ____
ROOT
ATOM      1  O   UNL     1      15.988  18.936  39.940  0.00  0.00    -0.289 OA
ATOM      2  O   UNL     1      14.269  16.389  39.837  0.00  0.00    -0.507 OA
ATOM      3  O   UNL     1      14.670  18.622  37.337  0.00  0.00    -0.506 OA
ATOM      4  O   UNL     1      10.162  17.020  42.190  0.00  0.00    -0.290 OA
ATOM      5  C   UNL     1      12.938  19.301  41.859  0.00  0.00    +0.026 C 
ATOM      6  C   UNL     1      13.129  20.935  39.908  0.00  0.00    +0.024 C 
ATOM      7  C   UNL     1      12.158  20.161  40.817  0.00  0.00    -0.035 C 
ATOM      8  C   UNL     1      13.990  18.353  41.224  0.00  0.00    +0.190 C 
ATOM      9  C   UNL     1      11.938  18.525  42.731  0.00  0.00    +0.080 C 
ATOM     10  C   UNL     1      12.488  21.963  38.930  0.00  0.00    +0.096 C 
ATOM     11  C   UNL     1      13.958  19.906  39.202  0.00  0.00    +0.047 C 
ATOM     12  C   UNL     1      14.779  19.065  40.111  0.00  0.00    +0.202 C 
ATOM     13  C   UNL     1      13.392  17.075  40.663  0.00  0.00    +0.149 C 
ATOM     14  C   UNL     1      12.120  21.357  37.576  0.00  0.00    -0.002 A 
ATOM     15  C   UNL     1      11.317  17.380  41.957  0.00  0.00    +0.189 C 
ATOM     16  C   UNL     1      13.875  19.602  37.900  0.00  0.00    +0.135 C 
ATOM     17  C   UNL     1      12.145  16.643  40.946  0.00  0.00    +0.121 C 
ATOM     18  C   UNL     1      12.829  20.242  37.071  0.00  0.00    +0.064 A 
ATOM     19  C   UNL     1      13.474  23.119  38.671  0.00  0.00    -0.031 C 
ATOM     20  C   UNL     1      11.117  21.952  36.787  0.00  0.00    -0.055 A 
ATOM     21  C   UNL     1      12.475  19.735  35.808  0.00  0.00    +0.128 A 
ATOM     22  C   UNL     1      10.792  21.441  35.533  0.00  0.00    -0.058 A 
ATOM     23  C   UNL     1      11.467  20.330  35.047  0.00  0.00    -0.019 A 
ENDROOT
BRANCH  17  26
ATOM     24  O   UNL     1      11.209  15.462  39.133  0.00  0.00    -0.270 OA
ATOM     25  N   UNL     1      11.545  14.350  41.128  0.00  0.00    -0.325 N 
ATOM     26  C   UNL     1      11.587  15.443  40.299  0.00  0.00    +0.248 C 
ATOM     27  H   UNL     1      11.190  13.494  40.796  0.00  0.00    +0.000 HD
ATOM     28  H   UNL     1      11.870  14.422  42.054  0.00  0.00    +0.000 HD
ENDBRANCH  17  26
BRANCH   9  29
ATOM     29  N   UNL     1      12.549  17.938  43.921  0.00  0.00    -0.298 N 
ATOM     30  C   UNL     1      13.063  18.986  44.799  0.00  0.00    -0.012 C 
ATOM     31  C   UNL     1      11.580  17.103  44.631  0.00  0.00    -0.012 C 
ATOM     32  H   UNL     1      13.328  17.350  43.629  0.00  0.00    +0.000 HD
ENDBRANCH   9  29
BRANCH   8  33
ATOM     33  O   UNL     1      14.952  17.964  42.203  0.00  0.00    -0.373 OA
ATOM     34  H   UNL     1      15.360  18.756  42.589  0.00  0.00    +0.000 HD
ENDBRANCH   8  33
BRANCH  10  35
ATOM     35  O   UNL     1      11.348  22.549  39.566  0.00  0.00    -0.384 OA
ATOM     36  H   UNL     1      10.691  21.859  39.752  0.00  0.00    +0.000 HD
ENDBRANCH  10  35
BRANCH  21  37
ATOM     37  O   UNL     1      13.099  18.662  35.236  0.00  0.00    -0.506 OA
ATOM     38  H   UNL     1      13.784  18.218  35.695  0.00  0.00    +0.000 HD
ENDBRANCH  21  37
TORSDOF 5
ENDMDL
