MODEL 1
REMARK minimizedAffinity -9.69144917
REMARK minimizedRMSD -1
REMARK  Name = 54675776
REMARK  8 active torsions:
REMARK  status: ('A' for Active; 'I' for Inactive)
REMARK    1  A    between atoms: O_1  and  C_14
REMARK    2  A    between atoms: O_2  and  C_16
REMARK    3  A    between atoms: O_7  and  C_29
REMARK    4  A    between atoms: N_9  and  C_15
REMARK    5  A    between atoms: N_9  and  C_27
REMARK    6  A    between atoms: N_9  and  C_28
REMARK    7  A    between atoms: C_16  and  C_25
REMARK    8  A    between atoms: C_23  and  C_30
REMARK                            x       y       z     vdW  Elec       q    Type
REMARK                         _______ _______ _______ _____ _____    ______ ____
ROOT
ATOM      1  O   UNL     1      -1.501   8.273  18.768  0.00  0.00    -0.289 OA
ATOM      2  O   UNL     1      -1.898   5.282  19.357  0.00  0.00    -0.507 OA
ATOM      3  O   UNL     1      -3.217   7.848  21.111  0.00  0.00    -0.506 OA
ATOM      4  O   UNL     1       1.971   3.444  21.468  0.00  0.00    -0.290 OA
ATOM      5  C   UNL     1       1.471   6.788  20.211  0.00  0.00    +0.026 C 
ATOM      6  C   UNL     1       0.447   8.638  21.639  0.00  0.00    +0.024 C 
ATOM      7  C   UNL     1       1.282   7.345  21.655  0.00  0.00    -0.035 C 
ATOM      8  C   UNL     1       0.139   6.588  19.439  0.00  0.00    +0.190 C 
ATOM      9  C   UNL     1       2.286   5.486  20.269  0.00  0.00    +0.080 C 
ATOM     10  C   UNL     1       0.320   9.395  22.994  0.00  0.00    +0.096 C 
ATOM     11  C   UNL     1      -0.883   8.275  21.054  0.00  0.00    +0.047 C 
ATOM     12  C   UNL     1      -0.812   7.778  19.656  0.00  0.00    +0.202 C 
ATOM     13  C   UNL     1      -0.586   5.305  19.806  0.00  0.00    +0.149 C 
ATOM     14  C   UNL     1      -0.880   8.943  23.825  0.00  0.00    -0.002 A 
ATOM     15  C   UNL     1       1.449   4.345  20.812  0.00  0.00    +0.189 C 
ATOM     16  C   UNL     1      -2.038   8.211  21.731  0.00  0.00    +0.135 C 
ATOM     17  C   UNL     1      -0.014   4.289  20.485  0.00  0.00    +0.121 C 
ATOM     18  C   UNL     1      -2.031   8.413  23.197  0.00  0.00    +0.064 A 
ATOM     19  C   UNL     1       0.166  10.906  22.733  0.00  0.00    -0.031 C 
ATOM     20  C   UNL     1      -0.876   9.121  25.222  0.00  0.00    -0.055 A 
ATOM     21  C   UNL     1      -3.123   8.037  24.000  0.00  0.00    +0.128 A 
ATOM     22  C   UNL     1      -1.974   8.754  25.996  0.00  0.00    -0.058 A 
ATOM     23  C   UNL     1      -3.094   8.207  25.385  0.00  0.00    -0.019 A 
ENDROOT
BRANCH  17  26
ATOM     24  O   UNL     1      -0.411   1.970  20.646  0.00  0.00    -0.270 OA
ATOM     25  N   UNL     1      -1.955   3.428  21.555  0.00  0.00    -0.325 N 
ATOM     26  C   UNL     1      -0.795   3.108  20.893  0.00  0.00    +0.248 C 
ATOM     27  H   UNL     1      -2.553   2.713  21.872  0.00  0.00    +0.000 HD
ATOM     28  H   UNL     1      -2.188   4.371  21.711  0.00  0.00    +0.000 HD
ENDBRANCH  17  26
BRANCH   9  29
ATOM     29  N   UNL     1       2.774   5.056  18.961  0.00  0.00    -0.298 N 
ATOM     30  C   UNL     1       3.366   6.182  18.243  0.00  0.00    -0.012 C 
ATOM     31  C   UNL     1       3.748   3.975  19.112  0.00  0.00    -0.012 C 
ATOM     32  H   UNL     1       1.986   4.706  18.418  0.00  0.00    +0.000 HD
ENDBRANCH   9  29
BRANCH   8  33
ATOM     33  O   UNL     1       0.390   6.534  18.035  0.00  0.00    -0.373 OA
ATOM     34  H   UNL     1       0.855   7.339  17.759  0.00  0.00    +0.000 HD
ENDBRANCH   8  33
BRANCH  10  35
ATOM     35  O   UNL     1       1.545   9.241  23.719  0.00  0.00    -0.384 OA
ATOM     36  H   UNL     1       1.691   8.301  23.911  0.00  0.00    +0.000 HD
ENDBRANCH  10  35
BRANCH  21  37
ATOM     37  O   UNL     1      -4.277   7.515  23.487  0.00  0.00    -0.506 OA
ATOM     38  H   UNL     1      -4.360   7.376  22.565  0.00  0.00    +0.000 HD
ENDBRANCH  21  37
TORSDOF 5
ENDMDL
MODEL 2
REMARK minimizedAffinity -7.60398531
REMARK minimizedRMSD -1
REMARK  Name = 54675776
REMARK  8 active torsions:
REMARK  status: ('A' for Active; 'I' for Inactive)
REMARK    1  A    between atoms: O_1  and  C_14
REMARK    2  A    between atoms: O_2  and  C_16
REMARK    3  A    between atoms: O_7  and  C_29
REMARK    4  A    between atoms: N_9  and  C_15
REMARK    5  A    between atoms: N_9  and  C_27
REMARK    6  A    between atoms: N_9  and  C_28
REMARK    7  A    between atoms: C_16  and  C_25
REMARK    8  A    between atoms: C_23  and  C_30
REMARK                            x       y       z     vdW  Elec       q    Type
REMARK                         _______ _______ _______ _____ _____    ______ ____
ROOT
ATOM      1  O   UNL     1      -4.145  11.487  26.654  0.00  0.00    -0.289 OA
ATOM      2  O   UNL     1      -4.305   9.779  24.103  0.00  0.00    -0.507 OA
ATOM      3  O   UNL     1      -5.196   8.804  27.210  0.00  0.00    -0.506 OA
ATOM      4  O   UNL     1       0.018   8.169  22.868  0.00  0.00    -0.290 OA
ATOM      5  C   UNL     1      -0.868  10.386  25.573  0.00  0.00    +0.026 C 
ATOM      6  C   UNL     1      -1.538   9.518  27.877  0.00  0.00    +0.024 C 
ATOM      7  C   UNL     1      -0.696   9.242  26.619  0.00  0.00    -0.035 C 
ATOM      8  C   UNL     1      -2.348  10.679  25.206  0.00  0.00    +0.190 C 
ATOM      9  C   UNL     1      -0.034  10.064  24.323  0.00  0.00    +0.080 C 
ATOM     10  C   UNL     1      -1.334   8.542  29.074  0.00  0.00    +0.096 C 
ATOM     11  C   UNL     1      -2.965   9.585  27.425  0.00  0.00    +0.047 C 
ATOM     12  C   UNL     1      -3.241  10.680  26.459  0.00  0.00    +0.202 C 
ATOM     13  C   UNL     1      -2.924   9.706  24.192  0.00  0.00    +0.149 C 
ATOM     14  C   UNL     1      -2.270   7.335  29.032  0.00  0.00    -0.002 A 
ATOM     15  C   UNL     1      -0.677   8.957  23.512  0.00  0.00    +0.189 C 
ATOM     16  C   UNL     1      -3.906   8.668  27.686  0.00  0.00    +0.135 C 
ATOM     17  C   UNL     1      -2.173   8.870  23.445  0.00  0.00    +0.121 C 
ATOM     18  C   UNL     1      -3.530   7.425  28.396  0.00  0.00    +0.064 A 
ATOM     19  C   UNL     1      -1.586   9.285  30.400  0.00  0.00    -0.031 C 
ATOM     20  C   UNL     1      -1.914   6.145  29.695  0.00  0.00    -0.055 A 
ATOM     21  C   UNL     1      -4.372   6.298  28.408  0.00  0.00    +0.128 A 
ATOM     22  C   UNL     1      -2.769   5.045  29.704  0.00  0.00    -0.058 A 
ATOM     23  C   UNL     1      -3.995   5.121  29.057  0.00  0.00    -0.019 A 
ENDROOT
BRANCH  17  26
ATOM     24  O   UNL     1      -3.317   6.862  22.977  0.00  0.00    -0.270 OA
ATOM     25  N   UNL     1      -2.720   8.237  21.220  0.00  0.00    -0.325 N 
ATOM     26  C   UNL     1      -2.795   7.883  22.545  0.00  0.00    +0.248 C 
ATOM     27  H   UNL     1      -3.105   7.648  20.531  0.00  0.00    +0.000 HD
ATOM     28  H   UNL     1      -2.281   9.078  20.960  0.00  0.00    +0.000 HD
ENDBRANCH  17  26
BRANCH   9  29
ATOM     29  N   UNL     1       0.115  11.204  23.423  0.00  0.00    -0.298 N 
ATOM     30  C   UNL     1       1.195  12.077  23.880  0.00  0.00    -0.012 C 
ATOM     31  C   UNL     1       0.370  10.746  22.058  0.00  0.00    -0.012 C 
ATOM     32  H   UNL     1      -0.754  11.737  23.426  0.00  0.00    +0.000 HD
ENDBRANCH   9  29
BRANCH   8  33
ATOM     33  O   UNL     1      -2.462  11.984  24.639  0.00  0.00    -0.373 OA
ATOM     34  H   UNL     1      -2.103  12.638  25.259  0.00  0.00    +0.000 HD
ENDBRANCH   8  33
BRANCH  10  35
ATOM     35  O   UNL     1       0.039   8.136  29.101  0.00  0.00    -0.384 OA
ATOM     36  H   UNL     1       0.252   7.660  28.283  0.00  0.00    +0.000 HD
ENDBRANCH  10  35
BRANCH  21  37
ATOM     37  O   UNL     1      -5.606   6.285  27.820  0.00  0.00    -0.506 OA
ATOM     38  H   UNL     1      -5.918   7.044  27.368  0.00  0.00    +0.000 HD
ENDBRANCH  21  37
TORSDOF 5
ENDMDL
MODEL 3
REMARK minimizedAffinity -6.99166965
REMARK minimizedRMSD -1
REMARK  Name = 54675776
REMARK  8 active torsions:
REMARK  status: ('A' for Active; 'I' for Inactive)
REMARK    1  A    between atoms: O_1  and  C_14
REMARK    2  A    between atoms: O_2  and  C_16
REMARK    3  A    between atoms: O_7  and  C_29
REMARK    4  A    between atoms: N_9  and  C_15
REMARK    5  A    between atoms: N_9  and  C_27
REMARK    6  A    between atoms: N_9  and  C_28
REMARK    7  A    between atoms: C_16  and  C_25
REMARK    8  A    between atoms: C_23  and  C_30
REMARK                            x       y       z     vdW  Elec       q    Type
REMARK                         _______ _______ _______ _____ _____    ______ ____
ROOT
ATOM      1  O   UNL     1      -3.632   6.980  25.831  0.00  0.00    -0.289 OA
ATOM      2  O   UNL     1      -5.581   9.304  25.334  0.00  0.00    -0.507 OA
ATOM      3  O   UNL     1      -2.251   9.345  24.777  0.00  0.00    -0.506 OA
ATOM      4  O   UNL     1      -6.758  11.437  29.441  0.00  0.00    -0.290 OA
ATOM      5  C   UNL     1      -4.695   8.521  28.932  0.00  0.00    +0.026 C 
ATOM      6  C   UNL     1      -2.185   8.691  28.505  0.00  0.00    +0.024 C 
ATOM      7  C   UNL     1      -3.397   9.347  29.190  0.00  0.00    -0.035 C 
ATOM      8  C   UNL     1      -4.975   8.254  27.429  0.00  0.00    +0.190 C 
ATOM      9  C   UNL     1      -5.886   9.219  29.609  0.00  0.00    +0.080 C 
ATOM     10  C   UNL     1      -0.793   9.316  28.818  0.00  0.00    +0.096 C 
ATOM     11  C   UNL     1      -2.490   8.666  27.039  0.00  0.00    +0.047 C 
ATOM     12  C   UNL     1      -3.687   7.861  26.685  0.00  0.00    +0.202 C 
ATOM     13  C   UNL     1      -5.617   9.430  26.714  0.00  0.00    +0.149 C 
ATOM     14  C   UNL     1      -0.404  10.432  27.849  0.00  0.00    -0.002 A 
ATOM     15  C   UNL     1      -6.290  10.465  28.847  0.00  0.00    +0.189 C 
ATOM     16  C   UNL     1      -1.891   9.422  26.108  0.00  0.00    +0.135 C 
ATOM     17  C   UNL     1      -6.176  10.480  27.351  0.00  0.00    +0.121 C 
ATOM     18  C   UNL     1      -0.908  10.446  26.528  0.00  0.00    +0.064 A 
ATOM     19  C   UNL     1       0.295   8.227  28.739  0.00  0.00    -0.031 C 
ATOM     20  C   UNL     1       0.522  11.417  28.245  0.00  0.00    -0.055 A 
ATOM     21  C   UNL     1      -0.500  11.476  25.662  0.00  0.00    +0.128 A 
ATOM     22  C   UNL     1       0.922  12.421  27.367  0.00  0.00    -0.058 A 
ATOM     23  C   UNL     1       0.407  12.452  26.078  0.00  0.00    -0.019 A 
ENDROOT
BRANCH  17  26
ATOM     24  O   UNL     1      -7.905  11.854  26.524  0.00  0.00    -0.270 OA
ATOM     25  N   UNL     1      -5.717  12.403  26.032  0.00  0.00    -0.325 N 
ATOM     26  C   UNL     1      -6.701  11.635  26.603  0.00  0.00    +0.248 C 
ATOM     27  H   UNL     1      -5.957  13.201  25.508  0.00  0.00    +0.000 HD
ATOM     28  H   UNL     1      -4.771  12.155  26.145  0.00  0.00    +0.000 HD
ENDBRANCH  17  26
BRANCH   9  29
ATOM     29  N   UNL     1      -7.076   8.376  29.686  0.00  0.00    -0.298 N 
ATOM     30  C   UNL     1      -6.824   7.214  30.536  0.00  0.00    -0.012 C 
ATOM     31  C   UNL     1      -8.213   9.145  30.192  0.00  0.00    -0.012 C 
ATOM     32  H   UNL     1      -7.302   8.046  28.748  0.00  0.00    +0.000 HD
ENDBRANCH   9  29
BRANCH   8  33
ATOM     33  O   UNL     1      -5.866   7.147  27.287  0.00  0.00    -0.373 OA
ATOM     34  H   UNL     1      -5.491   6.371  27.732  0.00  0.00    +0.000 HD
ENDBRANCH   8  33
BRANCH  10  35
ATOM     35  O   UNL     1      -0.794   9.778  30.173  0.00  0.00    -0.384 OA
ATOM     36  H   UNL     1      -1.467  10.470  30.278  0.00  0.00    +0.000 HD
ENDBRANCH  10  35
BRANCH  21  37
ATOM     37  O   UNL     1      -0.932  11.576  24.369  0.00  0.00    -0.506 OA
ATOM     38  H   UNL     1      -1.541  10.951  24.029  0.00  0.00    +0.000 HD
ENDBRANCH  21  37
TORSDOF 5
ENDMDL
MODEL 4
REMARK minimizedAffinity -6.84890127
REMARK minimizedRMSD -1
REMARK  Name = 54675776
REMARK  8 active torsions:
REMARK  status: ('A' for Active; 'I' for Inactive)
REMARK    1  A    between atoms: O_1  and  C_14
REMARK    2  A    between atoms: O_2  and  C_16
REMARK    3  A    between atoms: O_7  and  C_29
REMARK    4  A    between atoms: N_9  and  C_15
REMARK    5  A    between atoms: N_9  and  C_27
REMARK    6  A    between atoms: N_9  and  C_28
REMARK    7  A    between atoms: C_16  and  C_25
REMARK    8  A    between atoms: C_23  and  C_30
REMARK                            x       y       z     vdW  Elec       q    Type
REMARK                         _______ _______ _______ _____ _____    ______ ____
ROOT
ATOM      1  O   UNL     1      -6.637  10.130  27.247  0.00  0.00    -0.289 OA
ATOM      2  O   UNL     1      -4.969   9.515  24.739  0.00  0.00    -0.507 OA
ATOM      3  O   UNL     1      -5.900   7.293  27.104  0.00  0.00    -0.506 OA
ATOM      4  O   UNL     1      -0.459  10.980  25.302  0.00  0.00    -0.290 OA
ATOM      5  C   UNL     1      -3.251  11.378  27.553  0.00  0.00    +0.026 C 
ATOM      6  C   UNL     1      -3.857   9.611  29.291  0.00  0.00    +0.024 C 
ATOM      7  C   UNL     1      -2.713  10.247  28.483  0.00  0.00    -0.035 C 
ATOM      8  C   UNL     1      -4.410  10.925  26.625  0.00  0.00    +0.190 C 
ATOM      9  C   UNL     1      -2.085  11.971  26.745  0.00  0.00    +0.080 C 
ATOM     10  C   UNL     1      -3.443   8.581  30.384  0.00  0.00    +0.096 C 
ATOM     11  C   UNL     1      -4.813   9.038  28.290  0.00  0.00    +0.047 C 
ATOM     12  C   UNL     1      -5.420  10.049  27.386  0.00  0.00    +0.202 C 
ATOM     13  C   UNL     1      -3.939  10.176  25.391  0.00  0.00    +0.149 C 
ATOM     14  C   UNL     1      -3.368   7.148  29.861  0.00  0.00    -0.002 A 
ATOM     15  C   UNL     1      -1.638  11.017  25.656  0.00  0.00    +0.189 C 
ATOM     16  C   UNL     1      -5.008   7.731  28.063  0.00  0.00    +0.135 C 
ATOM     17  C   UNL     1      -2.659  10.163  24.964  0.00  0.00    +0.121 C 
ATOM     18  C   UNL     1      -4.164   6.739  28.765  0.00  0.00    +0.064 A 
ATOM     19  C   UNL     1      -4.466   8.607  31.536  0.00  0.00    -0.031 C 
ATOM     20  C   UNL     1      -2.558   6.201  30.517  0.00  0.00    -0.055 A 
ATOM     21  C   UNL     1      -4.084   5.402  28.337  0.00  0.00    +0.128 A 
ATOM     22  C   UNL     1      -2.504   4.878  30.083  0.00  0.00    -0.058 A 
ATOM     23  C   UNL     1      -3.263   4.481  28.990  0.00  0.00    -0.019 A 
ENDROOT
BRANCH  17  26
ATOM     24  O   UNL     1      -2.142   8.124  23.899  0.00  0.00    -0.270 OA
ATOM     25  N   UNL     1      -2.006  10.081  22.680  0.00  0.00    -0.325 N 
ATOM     26  C   UNL     1      -2.247   9.343  23.812  0.00  0.00    +0.248 C 
ATOM     27  H   UNL     1      -1.723   9.632  21.850  0.00  0.00    +0.000 HD
ATOM     28  H   UNL     1      -2.115  11.059  22.698  0.00  0.00    +0.000 HD
ENDBRANCH  17  26
BRANCH   9  29
ATOM     29  N   UNL     1      -2.427  13.226  26.081  0.00  0.00    -0.298 N 
ATOM     30  C   UNL     1      -2.811  14.236  27.066  0.00  0.00    -0.012 C 
ATOM     31  C   UNL     1      -1.303  13.699  25.274  0.00  0.00    -0.012 C 
ATOM     32  H   UNL     1      -3.221  13.062  25.463  0.00  0.00    +0.000 HD
ENDBRANCH   9  29
BRANCH   8  33
ATOM     33  O   UNL     1      -5.141  12.061  26.166  0.00  0.00    -0.373 OA
ATOM     34  H   UNL     1      -5.461  12.570  26.928  0.00  0.00    +0.000 HD
ENDBRANCH   8  33
BRANCH  10  35
ATOM     35  O   UNL     1      -2.196   8.996  30.951  0.00  0.00    -0.384 OA
ATOM     36  H   UNL     1      -1.512   8.998  30.262  0.00  0.00    +0.000 HD
ENDBRANCH  10  35
BRANCH  21  37
ATOM     37  O   UNL     1      -4.811   4.913  27.288  0.00  0.00    -0.506 OA
ATOM     38  H   UNL     1      -5.382   5.479  26.807  0.00  0.00    +0.000 HD
ENDBRANCH  21  37
TORSDOF 5
ENDMDL
MODEL 5
REMARK minimizedAffinity -6.74631453
REMARK minimizedRMSD -1
REMARK  Name = 54675776
REMARK  8 active torsions:
REMARK  status: ('A' for Active; 'I' for Inactive)
REMARK    1  A    between atoms: O_1  and  C_14
REMARK    2  A    between atoms: O_2  and  C_16
REMARK    3  A    between atoms: O_7  and  C_29
REMARK    4  A    between atoms: N_9  and  C_15
REMARK    5  A    between atoms: N_9  and  C_27
REMARK    6  A    between atoms: N_9  and  C_28
REMARK    7  A    between atoms: C_16  and  C_25
REMARK    8  A    between atoms: C_23  and  C_30
REMARK                            x       y       z     vdW  Elec       q    Type
REMARK                         _______ _______ _______ _____ _____    ______ ____
ROOT
ATOM      1  O   UNL     1       0.119   9.773  28.372  0.00  0.00    -0.289 OA
ATOM      2  O   UNL     1      -2.708  10.647  29.205  0.00  0.00    -0.507 OA
ATOM      3  O   UNL     1      -1.942   8.058  27.178  0.00  0.00    -0.506 OA
ATOM      4  O   UNL     1      -4.075  14.517  26.764  0.00  0.00    -0.290 OA
ATOM      5  C   UNL     1      -0.898  12.809  26.677  0.00  0.00    +0.026 C 
ATOM      6  C   UNL     1      -0.451  10.851  25.103  0.00  0.00    +0.024 C 
ATOM      7  C   UNL     1      -1.243  12.155  25.303  0.00  0.00    -0.035 C 
ATOM      8  C   UNL     1      -1.075  11.851  27.886  0.00  0.00    +0.190 C 
ATOM      9  C   UNL     1      -1.725  14.092  26.852  0.00  0.00    +0.080 C 
ATOM     10  C   UNL     1      -0.570  10.178  23.703  0.00  0.00    +0.096 C 
ATOM     11  C   UNL     1      -0.853   9.936  26.218  0.00  0.00    +0.047 C 
ATOM     12  C   UNL     1      -0.520  10.451  27.571  0.00  0.00    +0.202 C 
ATOM     13  C   UNL     1      -2.516  11.718  28.346  0.00  0.00    +0.149 C 
ATOM     14  C   UNL     1      -1.724   9.182  23.611  0.00  0.00    -0.002 A 
ATOM     15  C   UNL     1      -3.175  13.768  27.147  0.00  0.00    +0.189 C 
ATOM     16  C   UNL     1      -1.604   8.834  26.086  0.00  0.00    +0.135 C 
ATOM     17  C   UNL     1      -3.503  12.558  27.971  0.00  0.00    +0.121 C 
ATOM     18  C   UNL     1      -2.184   8.506  24.765  0.00  0.00    +0.064 A 
ATOM     19  C   UNL     1       0.731   9.418  23.379  0.00  0.00    -0.031 C 
ATOM     20  C   UNL     1      -2.291   8.873  22.359  0.00  0.00    -0.055 A 
ATOM     21  C   UNL     1      -3.230   7.575  24.629  0.00  0.00    +0.128 A 
ATOM     22  C   UNL     1      -3.317   7.939  22.246  0.00  0.00    -0.058 A 
ATOM     23  C   UNL     1      -3.789   7.294  23.381  0.00  0.00    -0.019 A 
ENDROOT
BRANCH  17  26
ATOM     24  O   UNL     1      -5.579  11.445  27.856  0.00  0.00    -0.270 OA
ATOM     25  N   UNL     1      -5.328  13.173  29.366  0.00  0.00    -0.325 N 
ATOM     26  C   UNL     1      -4.901  12.323  28.376  0.00  0.00    +0.248 C 
ATOM     27  H   UNL     1      -6.247  13.103  29.712  0.00  0.00    +0.000 HD
ATOM     28  H   UNL     1      -4.715  13.853  29.729  0.00  0.00    +0.000 HD
ENDBRANCH  17  26
BRANCH   9  29
ATOM     29  N   UNL     1      -1.256  14.931  27.952  0.00  0.00    -0.298 N 
ATOM     30  C   UNL     1       0.083  15.444  27.667  0.00  0.00    -0.012 C 
ATOM     31  C   UNL     1      -2.189  16.033  28.186  0.00  0.00    -0.012 C 
ATOM     32  H   UNL     1      -1.210  14.363  28.798  0.00  0.00    +0.000 HD
ENDBRANCH   9  29
BRANCH   8  33
ATOM     33  O   UNL     1      -0.327  12.331  29.003  0.00  0.00    -0.373 OA
ATOM     34  H   UNL     1       0.604  12.431  28.750  0.00  0.00    +0.000 HD
ENDBRANCH   8  33
BRANCH  10  35
ATOM     35  O   UNL     1      -0.687  11.205  22.712  0.00  0.00    -0.384 OA
ATOM     36  H   UNL     1      -1.496  11.718  22.871  0.00  0.00    +0.000 HD
ENDBRANCH  10  35
BRANCH  21  37
ATOM     37  O   UNL     1      -3.744   6.874  25.683  0.00  0.00    -0.506 OA
ATOM     38  H   UNL     1      -3.412   7.016  26.548  0.00  0.00    +0.000 HD
ENDBRANCH  21  37
TORSDOF 5
ENDMDL
