REMARK  Name = 54675776
REMARK  8 active torsions:
REMARK  status: ('A' for Active; 'I' for Inactive)
REMARK    1  A    between atoms: O_1  and  C_14
REMARK    2  A    between atoms: O_2  and  C_16
REMARK    3  A    between atoms: O_7  and  C_29
REMARK    4  A    between atoms: N_9  and  C_15
REMARK    5  A    between atoms: N_9  and  C_27
REMARK    6  A    between atoms: N_9  and  C_28
REMARK    7  A    between atoms: C_16  and  C_25
REMARK    8  A    between atoms: C_23  and  C_30
REMARK                            x       y       z     vdW  Elec       q    Type
REMARK                         _______ _______ _______ _____ _____    ______ ____
ROOT
ATOM      1  O   UNL     1       0.163  -0.497   3.247  0.00  0.00    -0.289 OA
ATOM      2  O   UNL     1       1.451   1.907   1.829  0.00  0.00    -0.507 OA
ATOM      3  O   UNL     1      -1.859   1.331   2.160  0.00  0.00    -0.506 OA
ATOM      4  O   UNL     1       3.086   0.656  -2.480  0.00  0.00    -0.290 OA
ATOM      5  C   UNL     1       1.577  -1.432   0.046  0.00  0.00    +0.026 C 
ATOM      6  C   UNL     1      -0.947  -1.774   0.196  0.00  0.00    +0.024 C 
ATOM      7  C   UNL     1       0.235  -1.489  -0.747  0.00  0.00    -0.035 C 
ATOM      8  C   UNL     1       1.556  -0.438   1.238  0.00  0.00    +0.190 C 
ATOM      9  C   UNL     1       2.729  -1.121  -0.923  0.00  0.00    +0.080 C 
ATOM     10  C   UNL     1      -2.327  -2.024  -0.482  0.00  0.00    +0.096 C 
ATOM     11  C   UNL     1      -0.984  -0.646   1.181  0.00  0.00    +0.047 C 
ATOM     12  C   UNL     1       0.236  -0.539   2.022  0.00  0.00    +0.202 C 
ATOM     13  C   UNL     1       1.774   1.007   0.825  0.00  0.00    +0.149 C 
ATOM     14  C   UNL     1      -3.138  -0.745  -0.684  0.00  0.00    -0.002 A 
ATOM     15  C   UNL     1       2.696   0.330  -1.358  0.00  0.00    +0.189 C 
ATOM     16  C   UNL     1      -1.916   0.316   1.225  0.00  0.00    +0.135 C 
ATOM     17  C   UNL     1       2.245   1.378  -0.384  0.00  0.00    +0.121 C 
ATOM     18  C   UNL     1      -2.960   0.363   0.177  0.00  0.00    +0.064 A 
ATOM     19  C   UNL     1      -3.168  -2.979   0.388  0.00  0.00    -0.031 C 
ATOM     20  C   UNL     1      -4.125  -0.688  -1.687  0.00  0.00    -0.055 A 
ATOM     21  C   UNL     1      -3.749   1.509  -0.028  0.00  0.00    +0.128 A 
ATOM     22  C   UNL     1      -4.904   0.453  -1.864  0.00  0.00    -0.058 A 
ATOM     23  C   UNL     1      -4.712   1.552  -1.038  0.00  0.00    -0.019 A 
ENDROOT
BRANCH  17  26
ATOM     24  O   UNL     1       3.424   3.307  -1.054  0.00  0.00    -0.270 OA
ATOM     25  N   UNL     1       1.141   3.453  -0.741  0.00  0.00    -0.325 N 
ATOM     26  C   UNL     1       2.348   2.799  -0.760  0.00  0.00    +0.248 C 
ATOM     27  H   UNL     1       1.095   4.408  -0.976  0.00  0.00    +0.000 HD
ATOM     28  H   UNL     1       0.322   2.967  -0.492  0.00  0.00    +0.000 HD
ENDBRANCH  17  26
BRANCH   9  29
ATOM     29  N   UNL     1       4.048  -1.348  -0.338  0.00  0.00    -0.298 N 
ATOM     30  C   UNL     1       4.153  -2.716   0.166  0.00  0.00    -0.012 C 
ATOM     31  C   UNL     1       5.095  -1.083  -1.324  0.00  0.00    -0.012 C 
ATOM     32  H   UNL     1       4.172  -0.706   0.444  0.00  0.00    +0.000 HD
ENDBRANCH   9  29
BRANCH   8  33
ATOM     33  O   UNL     1       2.591  -0.764   2.165  0.00  0.00    -0.373 OA
ATOM     34  H   UNL     1       2.488  -1.684   2.455  0.00  0.00    +0.000 HD
ENDBRANCH   8  33
BRANCH  10  35
ATOM     35  O   UNL     1      -2.109  -2.705  -1.722  0.00  0.00    -0.384 OA
ATOM     36  H   UNL     1      -1.580  -2.143  -2.311  0.00  0.00    +0.000 HD
ENDBRANCH  10  35
BRANCH  21  37
ATOM     37  O   UNL     1      -3.650   2.629   0.749  0.00  0.00    -0.506 OA
ATOM     38  H   UNL     1      -3.023   2.664   1.444  0.00  0.00    +0.000 HD
ENDBRANCH  21  37
TORSDOF 5
